setid,Temperature (K),Pressure (kPa),Density (kg/m3),reference,phases,Mole fraction,Mole fraction of compound name,Weight fraction,Weight fraction of compound name,IL_SMILES,IL_name,IL_ID,Solvent_SMILES,Solvent_name,Solvent_ID,IL_cation_SMILES,IL_anion_SMILES,IL_component_number,Mole fraction of solvent,IL_MW,Solvent_MW,Record_ID,Contains_Metal,Standardized_IL_SMILES,Changes
gWtbb,318.15,101.0,1007.1,Mokhtarani et al. (2010),Liquid,0.5449999999999999,ethanol,,,CCCCCCCCn1cc[n+](C)c1.O=[N+]([O-])[O-],1-methyl-3-octylimidazolium nitrate,AAxZbI,CCO,ethanol,AAIsrh,CCCCCCCCn1cc[n+](C)c1,O=[N+]([O-])[O-],2,0.455,,,138,False,CCCCCCCCn1cc[n+](C)c1.O=[N+]([O-])[O-],No changes
gWtbb,318.15,101.0,990.4,Mokhtarani et al. (2010),Liquid,0.4459999999999999,ethanol,,,CCCCCCCCn1cc[n+](C)c1.O=[N+]([O-])[O-],1-methyl-3-octylimidazolium nitrate,AAxZbI,CCO,ethanol,AAIsrh,CCCCCCCCn1cc[n+](C)c1,O=[N+]([O-])[O-],2,0.554,,,139,False,CCCCCCCCn1cc[n+](C)c1.O=[N+]([O-])[O-],No changes
gWtbb,318.15,101.0,967.1,Mokhtarani et al. (2010),Liquid,0.3379999999999999,ethanol,,,CCCCCCCCn1cc[n+](C)c1.O=[N+]([O-])[O-],1-methyl-3-octylimidazolium nitrate,AAxZbI,CCO,ethanol,AAIsrh,CCCCCCCCn1cc[n+](C)c1,O=[N+]([O-])[O-],2,0.662,,,140,False,CCCCCCCCn1cc[n+](C)c1.O=[N+]([O-])[O-],No changes
gWtbb,318.15,101.0,935.4,Mokhtarani et al. (2010),Liquid,0.2329999999999999,ethanol,,,CCCCCCCCn1cc[n+](C)c1.O=[N+]([O-])[O-],1-methyl-3-octylimidazolium nitrate,AAxZbI,CCO,ethanol,AAIsrh,CCCCCCCCn1cc[n+](C)c1,O=[N+]([O-])[O-],2,0.767,,,141,False,CCCCCCCCn1cc[n+](C)c1.O=[N+]([O-])[O-],No changes
gWtbb,318.15,101.0,888.0,Mokhtarani et al. (2010),Liquid,0.132,ethanol,,,CCCCCCCCn1cc[n+](C)c1.O=[N+]([O-])[O-],1-methyl-3-octylimidazolium nitrate,AAxZbI,CCO,ethanol,AAIsrh,CCCCCCCCn1cc[n+](C)c1,O=[N+]([O-])[O-],2,0.868,,,142,False,CCCCCCCCn1cc[n+](C)c1.O=[N+]([O-])[O-],No changes
gWtbb,323.15,101.0,1039.7,Mokhtarani et al. (2010),Liquid,0.872,ethanol,,,CCCCCCCCn1cc[n+](C)c1.O=[N+]([O-])[O-],1-methyl-3-octylimidazolium nitrate,AAxZbI,CCO,ethanol,AAIsrh,CCCCCCCCn1cc[n+](C)c1,O=[N+]([O-])[O-],2,0.128,,,143,False,CCCCCCCCn1cc[n+](C)c1.O=[N+]([O-])[O-],No changes
gWtbb,323.15,101.0,1027.4,Mokhtarani et al. (2010),Liquid,0.734,ethanol,,,CCCCCCCCn1cc[n+](C)c1.O=[N+]([O-])[O-],1-methyl-3-octylimidazolium nitrate,AAxZbI,CCO,ethanol,AAIsrh,CCCCCCCCn1cc[n+](C)c1,O=[N+]([O-])[O-],2,0.266,,,144,False,CCCCCCCCn1cc[n+](C)c1.O=[N+]([O-])[O-],No changes
gWtbb,323.15,101.0,1017.2,Mokhtarani et al. (2010),Liquid,0.643,ethanol,,,CCCCCCCCn1cc[n+](C)c1.O=[N+]([O-])[O-],1-methyl-3-octylimidazolium nitrate,AAxZbI,CCO,ethanol,AAIsrh,CCCCCCCCn1cc[n+](C)c1,O=[N+]([O-])[O-],2,0.357,,,145,False,CCCCCCCCn1cc[n+](C)c1.O=[N+]([O-])[O-],No changes
gWtbb,323.15,101.0,1003.8,Mokhtarani et al. (2010),Liquid,0.5449999999999999,ethanol,,,CCCCCCCCn1cc[n+](C)c1.O=[N+]([O-])[O-],1-methyl-3-octylimidazolium nitrate,AAxZbI,CCO,ethanol,AAIsrh,CCCCCCCCn1cc[n+](C)c1,O=[N+]([O-])[O-],2,0.455,,,146,False,CCCCCCCCn1cc[n+](C)c1.O=[N+]([O-])[O-],No changes
gWtbb,323.15,101.0,987.1,Mokhtarani et al. (2010),Liquid,0.4459999999999999,ethanol,,,CCCCCCCCn1cc[n+](C)c1.O=[N+]([O-])[O-],1-methyl-3-octylimidazolium nitrate,AAxZbI,CCO,ethanol,AAIsrh,CCCCCCCCn1cc[n+](C)c1,O=[N+]([O-])[O-],2,0.554,,,147,False,CCCCCCCCn1cc[n+](C)c1.O=[N+]([O-])[O-],No changes
gWtbb,323.15,101.0,963.7,Mokhtarani et al. (2010),Liquid,0.3379999999999999,ethanol,,,CCCCCCCCn1cc[n+](C)c1.O=[N+]([O-])[O-],1-methyl-3-octylimidazolium nitrate,AAxZbI,CCO,ethanol,AAIsrh,CCCCCCCCn1cc[n+](C)c1,O=[N+]([O-])[O-],2,0.662,,,148,False,CCCCCCCCn1cc[n+](C)c1.O=[N+]([O-])[O-],No changes
gWtbb,323.15,101.0,931.8,Mokhtarani et al. (2010),Liquid,0.2329999999999999,ethanol,,,CCCCCCCCn1cc[n+](C)c1.O=[N+]([O-])[O-],1-methyl-3-octylimidazolium nitrate,AAxZbI,CCO,ethanol,AAIsrh,CCCCCCCCn1cc[n+](C)c1,O=[N+]([O-])[O-],2,0.767,,,149,False,CCCCCCCCn1cc[n+](C)c1.O=[N+]([O-])[O-],No changes
gWtbb,323.15,101.0,883.9,Mokhtarani et al. (2010),Liquid,0.132,ethanol,,,CCCCCCCCn1cc[n+](C)c1.O=[N+]([O-])[O-],1-methyl-3-octylimidazolium nitrate,AAxZbI,CCO,ethanol,AAIsrh,CCCCCCCCn1cc[n+](C)c1,O=[N+]([O-])[O-],2,0.868,,,150,False,CCCCCCCCn1cc[n+](C)c1.O=[N+]([O-])[O-],No changes
gWtbb,328.15,101.0,1033.6,Mokhtarani et al. (2010),Liquid,0.872,ethanol,,,CCCCCCCCn1cc[n+](C)c1.O=[N+]([O-])[O-],1-methyl-3-octylimidazolium nitrate,AAxZbI,CCO,ethanol,AAIsrh,CCCCCCCCn1cc[n+](C)c1,O=[N+]([O-])[O-],2,0.128,,,151,False,CCCCCCCCn1cc[n+](C)c1.O=[N+]([O-])[O-],No changes
gWtbb,328.15,101.0,1021.3,Mokhtarani et al. (2010),Liquid,0.734,ethanol,,,CCCCCCCCn1cc[n+](C)c1.O=[N+]([O-])[O-],1-methyl-3-octylimidazolium nitrate,AAxZbI,CCO,ethanol,AAIsrh,CCCCCCCCn1cc[n+](C)c1,O=[N+]([O-])[O-],2,0.266,,,152,False,CCCCCCCCn1cc[n+](C)c1.O=[N+]([O-])[O-],No changes
gWtbb,328.15,101.0,1011.0,Mokhtarani et al. (2010),Liquid,0.643,ethanol,,,CCCCCCCCn1cc[n+](C)c1.O=[N+]([O-])[O-],1-methyl-3-octylimidazolium nitrate,AAxZbI,CCO,ethanol,AAIsrh,CCCCCCCCn1cc[n+](C)c1,O=[N+]([O-])[O-],2,0.357,,,153,False,CCCCCCCCn1cc[n+](C)c1.O=[N+]([O-])[O-],No changes
gWtbb,328.15,101.0,997.4,Mokhtarani et al. (2010),Liquid,0.5449999999999999,ethanol,,,CCCCCCCCn1cc[n+](C)c1.O=[N+]([O-])[O-],1-methyl-3-octylimidazolium nitrate,AAxZbI,CCO,ethanol,AAIsrh,CCCCCCCCn1cc[n+](C)c1,O=[N+]([O-])[O-],2,0.455,,,154,False,CCCCCCCCn1cc[n+](C)c1.O=[N+]([O-])[O-],No changes
gWtbb,328.15,101.0,980.4,Mokhtarani et al. (2010),Liquid,0.4459999999999999,ethanol,,,CCCCCCCCn1cc[n+](C)c1.O=[N+]([O-])[O-],1-methyl-3-octylimidazolium nitrate,AAxZbI,CCO,ethanol,AAIsrh,CCCCCCCCn1cc[n+](C)c1,O=[N+]([O-])[O-],2,0.554,,,155,False,CCCCCCCCn1cc[n+](C)c1.O=[N+]([O-])[O-],No changes
gWtbb,328.15,101.0,956.8,Mokhtarani et al. (2010),Liquid,0.3379999999999999,ethanol,,,CCCCCCCCn1cc[n+](C)c1.O=[N+]([O-])[O-],1-methyl-3-octylimidazolium nitrate,AAxZbI,CCO,ethanol,AAIsrh,CCCCCCCCn1cc[n+](C)c1,O=[N+]([O-])[O-],2,0.662,,,156,False,CCCCCCCCn1cc[n+](C)c1.O=[N+]([O-])[O-],No changes
gWtbb,328.15,101.0,924.4,Mokhtarani et al. (2010),Liquid,0.2329999999999999,ethanol,,,CCCCCCCCn1cc[n+](C)c1.O=[N+]([O-])[O-],1-methyl-3-octylimidazolium nitrate,AAxZbI,CCO,ethanol,AAIsrh,CCCCCCCCn1cc[n+](C)c1,O=[N+]([O-])[O-],2,0.767,,,157,False,CCCCCCCCn1cc[n+](C)c1.O=[N+]([O-])[O-],No changes
gWtbb,328.15,101.0,876.1,Mokhtarani et al. (2010),Liquid,0.132,ethanol,,,CCCCCCCCn1cc[n+](C)c1.O=[N+]([O-])[O-],1-methyl-3-octylimidazolium nitrate,AAxZbI,CCO,ethanol,AAIsrh,CCCCCCCCn1cc[n+](C)c1,O=[N+]([O-])[O-],2,0.868,,,158,False,CCCCCCCCn1cc[n+](C)c1.O=[N+]([O-])[O-],No changes
IqNAh,293.15,101.0,854.988,Garcia-Mardones et al. (2012a),Liquid,0.0507,1-butyl-4-methylpyridinium tetrafluoroborate,,,CCCC[n+]1ccc(C)cc1.F[B-](F)(F)F,1-butyl-4-methylpyridinium tetrafluoroborate,AAtevY,CCO,ethanol,AAIsrh,CCCC[n+]1ccc(C)cc1,F[B-](F)(F)F,2,,,,159,False,CCCC[n+]1ccc(C)cc1.F[B-](F)(F)F,No changes
IqNAh,293.15,101.0,904.491,Garcia-Mardones et al. (2012a),Liquid,0.1,1-butyl-4-methylpyridinium tetrafluoroborate,,,CCCC[n+]1ccc(C)cc1.F[B-](F)(F)F,1-butyl-4-methylpyridinium tetrafluoroborate,AAtevY,CCO,ethanol,AAIsrh,CCCC[n+]1ccc(C)cc1,F[B-](F)(F)F,2,,,,160,False,CCCC[n+]1ccc(C)cc1.F[B-](F)(F)F,No changes
IqNAh,293.15,101.0,976.866,Garcia-Mardones et al. (2012a),Liquid,0.1971,1-butyl-4-methylpyridinium tetrafluoroborate,,,CCCC[n+]1ccc(C)cc1.F[B-](F)(F)F,1-butyl-4-methylpyridinium tetrafluoroborate,AAtevY,CCO,ethanol,AAIsrh,CCCC[n+]1ccc(C)cc1,F[B-](F)(F)F,2,,,,161,False,CCCC[n+]1ccc(C)cc1.F[B-](F)(F)F,No changes
IqNAh,293.15,101.0,1026.69,Garcia-Mardones et al. (2012a),Liquid,0.2912,1-butyl-4-methylpyridinium tetrafluoroborate,,,CCCC[n+]1ccc(C)cc1.F[B-](F)(F)F,1-butyl-4-methylpyridinium tetrafluoroborate,AAtevY,CCO,ethanol,AAIsrh,CCCC[n+]1ccc(C)cc1,F[B-](F)(F)F,2,,,,162,False,CCCC[n+]1ccc(C)cc1.F[B-](F)(F)F,No changes
IqNAh,293.15,101.0,1066.1,Garcia-Mardones et al. (2012a),Liquid,0.3903,1-butyl-4-methylpyridinium tetrafluoroborate,,,CCCC[n+]1ccc(C)cc1.F[B-](F)(F)F,1-butyl-4-methylpyridinium tetrafluoroborate,AAtevY,CCO,ethanol,AAIsrh,CCCC[n+]1ccc(C)cc1,F[B-](F)(F)F,2,,,,163,False,CCCC[n+]1ccc(C)cc1.F[B-](F)(F)F,No changes
IqNAh,293.15,101.0,1096.19,Garcia-Mardones et al. (2012a),Liquid,0.4876,1-butyl-4-methylpyridinium tetrafluoroborate,,,CCCC[n+]1ccc(C)cc1.F[B-](F)(F)F,1-butyl-4-methylpyridinium tetrafluoroborate,AAtevY,CCO,ethanol,AAIsrh,CCCC[n+]1ccc(C)cc1,F[B-](F)(F)F,2,,,,164,False,CCCC[n+]1ccc(C)cc1.F[B-](F)(F)F,No changes
IqNAh,293.15,101.0,1119.75,Garcia-Mardones et al. (2012a),Liquid,0.5825,1-butyl-4-methylpyridinium tetrafluoroborate,,,CCCC[n+]1ccc(C)cc1.F[B-](F)(F)F,1-butyl-4-methylpyridinium tetrafluoroborate,AAtevY,CCO,ethanol,AAIsrh,CCCC[n+]1ccc(C)cc1,F[B-](F)(F)F,2,,,,165,False,CCCC[n+]1ccc(C)cc1.F[B-](F)(F)F,No changes
IqNAh,293.15,101.0,1141.24,Garcia-Mardones et al. (2012a),Liquid,0.6879,1-butyl-4-methylpyridinium tetrafluoroborate,,,CCCC[n+]1ccc(C)cc1.F[B-](F)(F)F,1-butyl-4-methylpyridinium tetrafluoroborate,AAtevY,CCO,ethanol,AAIsrh,CCCC[n+]1ccc(C)cc1,F[B-](F)(F)F,2,,,,166,False,CCCC[n+]1ccc(C)cc1.F[B-](F)(F)F,No changes
IqNAh,293.15,101.0,1159.02,Garcia-Mardones et al. (2012a),Liquid,0.7938,1-butyl-4-methylpyridinium tetrafluoroborate,,,CCCC[n+]1ccc(C)cc1.F[B-](F)(F)F,1-butyl-4-methylpyridinium tetrafluoroborate,AAtevY,CCO,ethanol,AAIsrh,CCCC[n+]1ccc(C)cc1,F[B-](F)(F)F,2,,,,167,False,CCCC[n+]1ccc(C)cc1.F[B-](F)(F)F,No changes
IqNAh,293.15,101.0,1173.0,Garcia-Mardones et al. (2012a),Liquid,0.8927,1-butyl-4-methylpyridinium tetrafluoroborate,,,CCCC[n+]1ccc(C)cc1.F[B-](F)(F)F,1-butyl-4-methylpyridinium tetrafluoroborate,AAtevY,CCO,ethanol,AAIsrh,CCCC[n+]1ccc(C)cc1,F[B-](F)(F)F,2,,,,168,False,CCCC[n+]1ccc(C)cc1.F[B-](F)(F)F,No changes
IqNAh,293.15,101.0,1177.54,Garcia-Mardones et al. (2012a),Liquid,0.9284,1-butyl-4-methylpyridinium tetrafluoroborate,,,CCCC[n+]1ccc(C)cc1.F[B-](F)(F)F,1-butyl-4-methylpyridinium tetrafluoroborate,AAtevY,CCO,ethanol,AAIsrh,CCCC[n+]1ccc(C)cc1,F[B-](F)(F)F,2,,,,169,False,CCCC[n+]1ccc(C)cc1.F[B-](F)(F)F,No changes
IqNAh,303.15,101.0,846.802,Garcia-Mardones et al. (2012a),Liquid,0.0507,1-butyl-4-methylpyridinium tetrafluoroborate,,,CCCC[n+]1ccc(C)cc1.F[B-](F)(F)F,1-butyl-4-methylpyridinium tetrafluoroborate,AAtevY,CCO,ethanol,AAIsrh,CCCC[n+]1ccc(C)cc1,F[B-](F)(F)F,2,,,,170,False,CCCC[n+]1ccc(C)cc1.F[B-](F)(F)F,No changes
IqNAh,303.15,101.0,896.578,Garcia-Mardones et al. (2012a),Liquid,0.1,1-butyl-4-methylpyridinium tetrafluoroborate,,,CCCC[n+]1ccc(C)cc1.F[B-](F)(F)F,1-butyl-4-methylpyridinium tetrafluoroborate,AAtevY,CCO,ethanol,AAIsrh,CCCC[n+]1ccc(C)cc1,F[B-](F)(F)F,2,,,,171,False,CCCC[n+]1ccc(C)cc1.F[B-](F)(F)F,No changes
IqNAh,303.15,101.0,969.284,Garcia-Mardones et al. (2012a),Liquid,0.1971,1-butyl-4-methylpyridinium tetrafluoroborate,,,CCCC[n+]1ccc(C)cc1.F[B-](F)(F)F,1-butyl-4-methylpyridinium tetrafluoroborate,AAtevY,CCO,ethanol,AAIsrh,CCCC[n+]1ccc(C)cc1,F[B-](F)(F)F,2,,,,172,False,CCCC[n+]1ccc(C)cc1.F[B-](F)(F)F,No changes
IqNAh,303.15,101.0,1019.31,Garcia-Mardones et al. (2012a),Liquid,0.2912,1-butyl-4-methylpyridinium tetrafluoroborate,,,CCCC[n+]1ccc(C)cc1.F[B-](F)(F)F,1-butyl-4-methylpyridinium tetrafluoroborate,AAtevY,CCO,ethanol,AAIsrh,CCCC[n+]1ccc(C)cc1,F[B-](F)(F)F,2,,,,173,False,CCCC[n+]1ccc(C)cc1.F[B-](F)(F)F,No changes
IqNAh,303.15,101.0,1058.84,Garcia-Mardones et al. (2012a),Liquid,0.3903,1-butyl-4-methylpyridinium tetrafluoroborate,,,CCCC[n+]1ccc(C)cc1.F[B-](F)(F)F,1-butyl-4-methylpyridinium tetrafluoroborate,AAtevY,CCO,ethanol,AAIsrh,CCCC[n+]1ccc(C)cc1,F[B-](F)(F)F,2,,,,174,False,CCCC[n+]1ccc(C)cc1.F[B-](F)(F)F,No changes
IqNAh,303.15,101.0,1088.98,Garcia-Mardones et al. (2012a),Liquid,0.4876,1-butyl-4-methylpyridinium tetrafluoroborate,,,CCCC[n+]1ccc(C)cc1.F[B-](F)(F)F,1-butyl-4-methylpyridinium tetrafluoroborate,AAtevY,CCO,ethanol,AAIsrh,CCCC[n+]1ccc(C)cc1,F[B-](F)(F)F,2,,,,175,False,CCCC[n+]1ccc(C)cc1.F[B-](F)(F)F,No changes
IqNAh,303.15,101.0,1112.72,Garcia-Mardones et al. (2012a),Liquid,0.5825,1-butyl-4-methylpyridinium tetrafluoroborate,,,CCCC[n+]1ccc(C)cc1.F[B-](F)(F)F,1-butyl-4-methylpyridinium tetrafluoroborate,AAtevY,CCO,ethanol,AAIsrh,CCCC[n+]1ccc(C)cc1,F[B-](F)(F)F,2,,,,176,False,CCCC[n+]1ccc(C)cc1.F[B-](F)(F)F,No changes
IqNAh,303.15,101.0,1134.29,Garcia-Mardones et al. (2012a),Liquid,0.6879,1-butyl-4-methylpyridinium tetrafluoroborate,,,CCCC[n+]1ccc(C)cc1.F[B-](F)(F)F,1-butyl-4-methylpyridinium tetrafluoroborate,AAtevY,CCO,ethanol,AAIsrh,CCCC[n+]1ccc(C)cc1,F[B-](F)(F)F,2,,,,177,False,CCCC[n+]1ccc(C)cc1.F[B-](F)(F)F,No changes
IqNAh,303.15,101.0,1152.18,Garcia-Mardones et al. (2012a),Liquid,0.7938,1-butyl-4-methylpyridinium tetrafluoroborate,,,CCCC[n+]1ccc(C)cc1.F[B-](F)(F)F,1-butyl-4-methylpyridinium tetrafluoroborate,AAtevY,CCO,ethanol,AAIsrh,CCCC[n+]1ccc(C)cc1,F[B-](F)(F)F,2,,,,178,False,CCCC[n+]1ccc(C)cc1.F[B-](F)(F)F,No changes
IqNAh,303.15,101.0,1166.2,Garcia-Mardones et al. (2012a),Liquid,0.8927,1-butyl-4-methylpyridinium tetrafluoroborate,,,CCCC[n+]1ccc(C)cc1.F[B-](F)(F)F,1-butyl-4-methylpyridinium tetrafluoroborate,AAtevY,CCO,ethanol,AAIsrh,CCCC[n+]1ccc(C)cc1,F[B-](F)(F)F,2,,,,179,False,CCCC[n+]1ccc(C)cc1.F[B-](F)(F)F,No changes
IqNAh,303.15,101.0,1170.73,Garcia-Mardones et al. (2012a),Liquid,0.9284,1-butyl-4-methylpyridinium tetrafluoroborate,,,CCCC[n+]1ccc(C)cc1.F[B-](F)(F)F,1-butyl-4-methylpyridinium tetrafluoroborate,AAtevY,CCO,ethanol,AAIsrh,CCCC[n+]1ccc(C)cc1,F[B-](F)(F)F,2,,,,180,False,CCCC[n+]1ccc(C)cc1.F[B-](F)(F)F,No changes
IqNAh,313.15,101.0,838.56,Garcia-Mardones et al. (2012a),Liquid,0.0507,1-butyl-4-methylpyridinium tetrafluoroborate,,,CCCC[n+]1ccc(C)cc1.F[B-](F)(F)F,1-butyl-4-methylpyridinium tetrafluoroborate,AAtevY,CCO,ethanol,AAIsrh,CCCC[n+]1ccc(C)cc1,F[B-](F)(F)F,2,,,,181,False,CCCC[n+]1ccc(C)cc1.F[B-](F)(F)F,No changes
IqNAh,313.15,101.0,888.401,Garcia-Mardones et al. (2012a),Liquid,0.1,1-butyl-4-methylpyridinium tetrafluoroborate,,,CCCC[n+]1ccc(C)cc1.F[B-](F)(F)F,1-butyl-4-methylpyridinium tetrafluoroborate,AAtevY,CCO,ethanol,AAIsrh,CCCC[n+]1ccc(C)cc1,F[B-](F)(F)F,2,,,,182,False,CCCC[n+]1ccc(C)cc1.F[B-](F)(F)F,No changes
IqNAh,313.15,101.0,961.403,Garcia-Mardones et al. (2012a),Liquid,0.1971,1-butyl-4-methylpyridinium tetrafluoroborate,,,CCCC[n+]1ccc(C)cc1.F[B-](F)(F)F,1-butyl-4-methylpyridinium tetrafluoroborate,AAtevY,CCO,ethanol,AAIsrh,CCCC[n+]1ccc(C)cc1,F[B-](F)(F)F,2,,,,183,False,CCCC[n+]1ccc(C)cc1.F[B-](F)(F)F,No changes
IqNAh,313.15,101.0,1011.46,Garcia-Mardones et al. (2012a),Liquid,0.2912,1-butyl-4-methylpyridinium tetrafluoroborate,,,CCCC[n+]1ccc(C)cc1.F[B-](F)(F)F,1-butyl-4-methylpyridinium tetrafluoroborate,AAtevY,CCO,ethanol,AAIsrh,CCCC[n+]1ccc(C)cc1,F[B-](F)(F)F,2,,,,184,False,CCCC[n+]1ccc(C)cc1.F[B-](F)(F)F,No changes
IqNAh,313.15,101.0,1051.3,Garcia-Mardones et al. (2012a),Liquid,0.3903,1-butyl-4-methylpyridinium tetrafluoroborate,,,CCCC[n+]1ccc(C)cc1.F[B-](F)(F)F,1-butyl-4-methylpyridinium tetrafluoroborate,AAtevY,CCO,ethanol,AAIsrh,CCCC[n+]1ccc(C)cc1,F[B-](F)(F)F,2,,,,185,False,CCCC[n+]1ccc(C)cc1.F[B-](F)(F)F,No changes
IqNAh,313.15,101.0,1081.75,Garcia-Mardones et al. (2012a),Liquid,0.4876,1-butyl-4-methylpyridinium tetrafluoroborate,,,CCCC[n+]1ccc(C)cc1.F[B-](F)(F)F,1-butyl-4-methylpyridinium tetrafluoroborate,AAtevY,CCO,ethanol,AAIsrh,CCCC[n+]1ccc(C)cc1,F[B-](F)(F)F,2,,,,186,False,CCCC[n+]1ccc(C)cc1.F[B-](F)(F)F,No changes
IqNAh,313.15,101.0,1105.58,Garcia-Mardones et al. (2012a),Liquid,0.5825,1-butyl-4-methylpyridinium tetrafluoroborate,,,CCCC[n+]1ccc(C)cc1.F[B-](F)(F)F,1-butyl-4-methylpyridinium tetrafluoroborate,AAtevY,CCO,ethanol,AAIsrh,CCCC[n+]1ccc(C)cc1,F[B-](F)(F)F,2,,,,187,False,CCCC[n+]1ccc(C)cc1.F[B-](F)(F)F,No changes
IqNAh,313.15,101.0,1145.03,Garcia-Mardones et al. (2012a),Liquid,0.7938,1-butyl-4-methylpyridinium tetrafluoroborate,,,CCCC[n+]1ccc(C)cc1.F[B-](F)(F)F,1-butyl-4-methylpyridinium tetrafluoroborate,AAtevY,CCO,ethanol,AAIsrh,CCCC[n+]1ccc(C)cc1,F[B-](F)(F)F,2,,,,188,False,CCCC[n+]1ccc(C)cc1.F[B-](F)(F)F,No changes
IqNAh,313.15,101.0,1159.13,Garcia-Mardones et al. (2012a),Liquid,0.8927,1-butyl-4-methylpyridinium tetrafluoroborate,,,CCCC[n+]1ccc(C)cc1.F[B-](F)(F)F,1-butyl-4-methylpyridinium tetrafluoroborate,AAtevY,CCO,ethanol,AAIsrh,CCCC[n+]1ccc(C)cc1,F[B-](F)(F)F,2,,,,189,False,CCCC[n+]1ccc(C)cc1.F[B-](F)(F)F,No changes
IqNAh,313.15,101.0,1163.69,Garcia-Mardones et al. (2012a),Liquid,0.9284,1-butyl-4-methylpyridinium tetrafluoroborate,,,CCCC[n+]1ccc(C)cc1.F[B-](F)(F)F,1-butyl-4-methylpyridinium tetrafluoroborate,AAtevY,CCO,ethanol,AAIsrh,CCCC[n+]1ccc(C)cc1,F[B-](F)(F)F,2,,,,190,False,CCCC[n+]1ccc(C)cc1.F[B-](F)(F)F,No changes
IqNAh,323.15,101.0,830.183,Garcia-Mardones et al. (2012a),Liquid,0.0507,1-butyl-4-methylpyridinium tetrafluoroborate,,,CCCC[n+]1ccc(C)cc1.F[B-](F)(F)F,1-butyl-4-methylpyridinium tetrafluoroborate,AAtevY,CCO,ethanol,AAIsrh,CCCC[n+]1ccc(C)cc1,F[B-](F)(F)F,2,,,,191,False,CCCC[n+]1ccc(C)cc1.F[B-](F)(F)F,No changes
IqNAh,323.15,101.0,880.152,Garcia-Mardones et al. (2012a),Liquid,0.1,1-butyl-4-methylpyridinium tetrafluoroborate,,,CCCC[n+]1ccc(C)cc1.F[B-](F)(F)F,1-butyl-4-methylpyridinium tetrafluoroborate,AAtevY,CCO,ethanol,AAIsrh,CCCC[n+]1ccc(C)cc1,F[B-](F)(F)F,2,,,,192,False,CCCC[n+]1ccc(C)cc1.F[B-](F)(F)F,No changes
IqNAh,323.15,101.0,953.269,Garcia-Mardones et al. (2012a),Liquid,0.1971,1-butyl-4-methylpyridinium tetrafluoroborate,,,CCCC[n+]1ccc(C)cc1.F[B-](F)(F)F,1-butyl-4-methylpyridinium tetrafluoroborate,AAtevY,CCO,ethanol,AAIsrh,CCCC[n+]1ccc(C)cc1,F[B-](F)(F)F,2,,,,193,False,CCCC[n+]1ccc(C)cc1.F[B-](F)(F)F,No changes
IqNAh,323.15,101.0,1003.86,Garcia-Mardones et al. (2012a),Liquid,0.2912,1-butyl-4-methylpyridinium tetrafluoroborate,,,CCCC[n+]1ccc(C)cc1.F[B-](F)(F)F,1-butyl-4-methylpyridinium tetrafluoroborate,AAtevY,CCO,ethanol,AAIsrh,CCCC[n+]1ccc(C)cc1,F[B-](F)(F)F,2,,,,194,False,CCCC[n+]1ccc(C)cc1.F[B-](F)(F)F,No changes
IqNAh,323.15,101.0,1043.95,Garcia-Mardones et al. (2012a),Liquid,0.3903,1-butyl-4-methylpyridinium tetrafluoroborate,,,CCCC[n+]1ccc(C)cc1.F[B-](F)(F)F,1-butyl-4-methylpyridinium tetrafluoroborate,AAtevY,CCO,ethanol,AAIsrh,CCCC[n+]1ccc(C)cc1,F[B-](F)(F)F,2,,,,195,False,CCCC[n+]1ccc(C)cc1.F[B-](F)(F)F,No changes
IqNAh,323.15,101.0,1074.66,Garcia-Mardones et al. (2012a),Liquid,0.4876,1-butyl-4-methylpyridinium tetrafluoroborate,,,CCCC[n+]1ccc(C)cc1.F[B-](F)(F)F,1-butyl-4-methylpyridinium tetrafluoroborate,AAtevY,CCO,ethanol,AAIsrh,CCCC[n+]1ccc(C)cc1,F[B-](F)(F)F,2,,,,196,False,CCCC[n+]1ccc(C)cc1.F[B-](F)(F)F,No changes
IqNAh,323.15,101.0,1098.5,Garcia-Mardones et al. (2012a),Liquid,0.5825,1-butyl-4-methylpyridinium tetrafluoroborate,,,CCCC[n+]1ccc(C)cc1.F[B-](F)(F)F,1-butyl-4-methylpyridinium tetrafluoroborate,AAtevY,CCO,ethanol,AAIsrh,CCCC[n+]1ccc(C)cc1,F[B-](F)(F)F,2,,,,197,False,CCCC[n+]1ccc(C)cc1.F[B-](F)(F)F,No changes
IqNAh,323.15,101.0,1120.3,Garcia-Mardones et al. (2012a),Liquid,0.6879,1-butyl-4-methylpyridinium tetrafluoroborate,,,CCCC[n+]1ccc(C)cc1.F[B-](F)(F)F,1-butyl-4-methylpyridinium tetrafluoroborate,AAtevY,CCO,ethanol,AAIsrh,CCCC[n+]1ccc(C)cc1,F[B-](F)(F)F,2,,,,198,False,CCCC[n+]1ccc(C)cc1.F[B-](F)(F)F,No changes
IqNAh,323.15,101.0,1138.28,Garcia-Mardones et al. (2012a),Liquid,0.7938,1-butyl-4-methylpyridinium tetrafluoroborate,,,CCCC[n+]1ccc(C)cc1.F[B-](F)(F)F,1-butyl-4-methylpyridinium tetrafluoroborate,AAtevY,CCO,ethanol,AAIsrh,CCCC[n+]1ccc(C)cc1,F[B-](F)(F)F,2,,,,199,False,CCCC[n+]1ccc(C)cc1.F[B-](F)(F)F,No changes
IqNAh,323.15,101.0,1152.42,Garcia-Mardones et al. (2012a),Liquid,0.8927,1-butyl-4-methylpyridinium tetrafluoroborate,,,CCCC[n+]1ccc(C)cc1.F[B-](F)(F)F,1-butyl-4-methylpyridinium tetrafluoroborate,AAtevY,CCO,ethanol,AAIsrh,CCCC[n+]1ccc(C)cc1,F[B-](F)(F)F,2,,,,200,False,CCCC[n+]1ccc(C)cc1.F[B-](F)(F)F,No changes
IqNAh,323.15,101.0,1157.0,Garcia-Mardones et al. (2012a),Liquid,0.9284,1-butyl-4-methylpyridinium tetrafluoroborate,,,CCCC[n+]1ccc(C)cc1.F[B-](F)(F)F,1-butyl-4-methylpyridinium tetrafluoroborate,AAtevY,CCO,ethanol,AAIsrh,CCCC[n+]1ccc(C)cc1,F[B-](F)(F)F,2,,,,201,False,CCCC[n+]1ccc(C)cc1.F[B-](F)(F)F,No changes