setid,Temperature (K),Pressure (kPa),Density (kg/m3),reference,phases,Mole fraction,Mole fraction of compound name,Weight fraction,Weight fraction of compound name,IL_SMILES,IL_name,IL_ID,Solvent_SMILES,Solvent_name,Solvent_ID,IL_cation_SMILES,IL_anion_SMILES,IL_component_number,Mole fraction of solvent,IL_MW,Solvent_MW,Record_ID,Contains_Metal,Standardized_IL_SMILES,Changes
qEurR,288.15,101.0,1045.7,Barros et al. (2018),Liquid,0.3883999999999999,ethanol,,,[NH3+]CCO.CC(O)C(=O)[O-],2-hydroxyethylammonium lactate,AAdDEB,CCO,ethanol,AAIsrh,[NH3+]CCO,CC(O)C(=O)[O-],2,0.6116,,,1599,False,[NH3+]CCO.CC(O)C(=O)[O-],No changes
qEurR,288.15,101.0,993.7,Barros et al. (2018),Liquid,0.2768,ethanol,,,[NH3+]CCO.CC(O)C(=O)[O-],2-hydroxyethylammonium lactate,AAdDEB,CCO,ethanol,AAIsrh,[NH3+]CCO,CC(O)C(=O)[O-],2,0.7232,,,1600,False,[NH3+]CCO.CC(O)C(=O)[O-],No changes
qEurR,288.15,101.0,943.8,Barros et al. (2018),Liquid,0.1891,ethanol,,,[NH3+]CCO.CC(O)C(=O)[O-],2-hydroxyethylammonium lactate,AAdDEB,CCO,ethanol,AAIsrh,[NH3+]CCO,CC(O)C(=O)[O-],2,0.8109,,,1601,False,[NH3+]CCO.CC(O)C(=O)[O-],No changes
qEurR,288.15,101.0,842.4,Barros et al. (2018),Liquid,0.0472,ethanol,,,[NH3+]CCO.CC(O)C(=O)[O-],2-hydroxyethylammonium lactate,AAdDEB,CCO,ethanol,AAIsrh,[NH3+]CCO,CC(O)C(=O)[O-],2,0.9528,,,1602,False,[NH3+]CCO.CC(O)C(=O)[O-],No changes
qEurR,290.65,101.0,1195.6,Barros et al. (2018),Liquid,0.9457,ethanol,,,[NH3+]CCO.CC(O)C(=O)[O-],2-hydroxyethylammonium lactate,AAdDEB,CCO,ethanol,AAIsrh,[NH3+]CCO,CC(O)C(=O)[O-],2,0.0543,,,1603,False,[NH3+]CCO.CC(O)C(=O)[O-],No changes
qEurR,290.65,101.0,1187.5,Barros et al. (2018),Liquid,0.8949,ethanol,,,[NH3+]CCO.CC(O)C(=O)[O-],2-hydroxyethylammonium lactate,AAdDEB,CCO,ethanol,AAIsrh,[NH3+]CCO,CC(O)C(=O)[O-],2,0.1051,,,1604,False,[NH3+]CCO.CC(O)C(=O)[O-],No changes
qEurR,290.65,101.0,1166.2,Barros et al. (2018),Liquid,0.794,ethanol,,,[NH3+]CCO.CC(O)C(=O)[O-],2-hydroxyethylammonium lactate,AAdDEB,CCO,ethanol,AAIsrh,[NH3+]CCO,CC(O)C(=O)[O-],2,0.206,,,1605,False,[NH3+]CCO.CC(O)C(=O)[O-],No changes
qEurR,290.65,101.0,1141.1,Barros et al. (2018),Liquid,0.6849000000000001,ethanol,,,[NH3+]CCO.CC(O)C(=O)[O-],2-hydroxyethylammonium lactate,AAdDEB,CCO,ethanol,AAIsrh,[NH3+]CCO,CC(O)C(=O)[O-],2,0.3151,,,1606,False,[NH3+]CCO.CC(O)C(=O)[O-],No changes
qEurR,290.65,101.0,1113.6,Barros et al. (2018),Liquid,0.5856,ethanol,,,[NH3+]CCO.CC(O)C(=O)[O-],2-hydroxyethylammonium lactate,AAdDEB,CCO,ethanol,AAIsrh,[NH3+]CCO,CC(O)C(=O)[O-],2,0.4144,,,1607,False,[NH3+]CCO.CC(O)C(=O)[O-],No changes
qEurR,290.65,101.0,1081.9,Barros et al. (2018),Liquid,0.4878,ethanol,,,[NH3+]CCO.CC(O)C(=O)[O-],2-hydroxyethylammonium lactate,AAdDEB,CCO,ethanol,AAIsrh,[NH3+]CCO,CC(O)C(=O)[O-],2,0.5122,,,1608,False,[NH3+]CCO.CC(O)C(=O)[O-],No changes
qEurR,290.65,101.0,1043.9,Barros et al. (2018),Liquid,0.3883999999999999,ethanol,,,[NH3+]CCO.CC(O)C(=O)[O-],2-hydroxyethylammonium lactate,AAdDEB,CCO,ethanol,AAIsrh,[NH3+]CCO,CC(O)C(=O)[O-],2,0.6116,,,1609,False,[NH3+]CCO.CC(O)C(=O)[O-],No changes
qEurR,290.65,101.0,991.8,Barros et al. (2018),Liquid,0.2768,ethanol,,,[NH3+]CCO.CC(O)C(=O)[O-],2-hydroxyethylammonium lactate,AAdDEB,CCO,ethanol,AAIsrh,[NH3+]CCO,CC(O)C(=O)[O-],2,0.7232,,,1610,False,[NH3+]CCO.CC(O)C(=O)[O-],No changes
qEurR,290.65,101.0,941.9,Barros et al. (2018),Liquid,0.1891,ethanol,,,[NH3+]CCO.CC(O)C(=O)[O-],2-hydroxyethylammonium lactate,AAdDEB,CCO,ethanol,AAIsrh,[NH3+]CCO,CC(O)C(=O)[O-],2,0.8109,,,1611,False,[NH3+]CCO.CC(O)C(=O)[O-],No changes
qEurR,290.65,101.0,840.5,Barros et al. (2018),Liquid,0.0472,ethanol,,,[NH3+]CCO.CC(O)C(=O)[O-],2-hydroxyethylammonium lactate,AAdDEB,CCO,ethanol,AAIsrh,[NH3+]CCO,CC(O)C(=O)[O-],2,0.9528,,,1612,False,[NH3+]CCO.CC(O)C(=O)[O-],No changes
qEurR,293.15,101.0,1194.1,Barros et al. (2018),Liquid,0.9457,ethanol,,,[NH3+]CCO.CC(O)C(=O)[O-],2-hydroxyethylammonium lactate,AAdDEB,CCO,ethanol,AAIsrh,[NH3+]CCO,CC(O)C(=O)[O-],2,0.0543,,,1613,False,[NH3+]CCO.CC(O)C(=O)[O-],No changes
qEurR,293.15,101.0,1186.0,Barros et al. (2018),Liquid,0.8949,ethanol,,,[NH3+]CCO.CC(O)C(=O)[O-],2-hydroxyethylammonium lactate,AAdDEB,CCO,ethanol,AAIsrh,[NH3+]CCO,CC(O)C(=O)[O-],2,0.1051,,,1614,False,[NH3+]CCO.CC(O)C(=O)[O-],No changes
qEurR,293.15,101.0,1164.6,Barros et al. (2018),Liquid,0.794,ethanol,,,[NH3+]CCO.CC(O)C(=O)[O-],2-hydroxyethylammonium lactate,AAdDEB,CCO,ethanol,AAIsrh,[NH3+]CCO,CC(O)C(=O)[O-],2,0.206,,,1615,False,[NH3+]CCO.CC(O)C(=O)[O-],No changes
qEurR,293.15,101.0,1139.4,Barros et al. (2018),Liquid,0.6849000000000001,ethanol,,,[NH3+]CCO.CC(O)C(=O)[O-],2-hydroxyethylammonium lactate,AAdDEB,CCO,ethanol,AAIsrh,[NH3+]CCO,CC(O)C(=O)[O-],2,0.3151,,,1616,False,[NH3+]CCO.CC(O)C(=O)[O-],No changes
qEurR,293.15,101.0,1112.0,Barros et al. (2018),Liquid,0.5856,ethanol,,,[NH3+]CCO.CC(O)C(=O)[O-],2-hydroxyethylammonium lactate,AAdDEB,CCO,ethanol,AAIsrh,[NH3+]CCO,CC(O)C(=O)[O-],2,0.4144,,,1617,False,[NH3+]CCO.CC(O)C(=O)[O-],No changes
qEurR,293.15,101.0,1080.2,Barros et al. (2018),Liquid,0.4878,ethanol,,,[NH3+]CCO.CC(O)C(=O)[O-],2-hydroxyethylammonium lactate,AAdDEB,CCO,ethanol,AAIsrh,[NH3+]CCO,CC(O)C(=O)[O-],2,0.5122,,,1618,False,[NH3+]CCO.CC(O)C(=O)[O-],No changes
qEurR,293.15,101.0,1042.2,Barros et al. (2018),Liquid,0.3883999999999999,ethanol,,,[NH3+]CCO.CC(O)C(=O)[O-],2-hydroxyethylammonium lactate,AAdDEB,CCO,ethanol,AAIsrh,[NH3+]CCO,CC(O)C(=O)[O-],2,0.6116,,,1619,False,[NH3+]CCO.CC(O)C(=O)[O-],No changes
qEurR,293.15,101.0,990.0,Barros et al. (2018),Liquid,0.2768,ethanol,,,[NH3+]CCO.CC(O)C(=O)[O-],2-hydroxyethylammonium lactate,AAdDEB,CCO,ethanol,AAIsrh,[NH3+]CCO,CC(O)C(=O)[O-],2,0.7232,,,1620,False,[NH3+]CCO.CC(O)C(=O)[O-],No changes
qEurR,293.15,101.0,940.0,Barros et al. (2018),Liquid,0.1891,ethanol,,,[NH3+]CCO.CC(O)C(=O)[O-],2-hydroxyethylammonium lactate,AAdDEB,CCO,ethanol,AAIsrh,[NH3+]CCO,CC(O)C(=O)[O-],2,0.8109,,,1621,False,[NH3+]CCO.CC(O)C(=O)[O-],No changes
qEurR,293.15,101.0,838.4,Barros et al. (2018),Liquid,0.0472,ethanol,,,[NH3+]CCO.CC(O)C(=O)[O-],2-hydroxyethylammonium lactate,AAdDEB,CCO,ethanol,AAIsrh,[NH3+]CCO,CC(O)C(=O)[O-],2,0.9528,,,1622,False,[NH3+]CCO.CC(O)C(=O)[O-],No changes
qEurR,295.65,101.0,1192.6,Barros et al. (2018),Liquid,0.9457,ethanol,,,[NH3+]CCO.CC(O)C(=O)[O-],2-hydroxyethylammonium lactate,AAdDEB,CCO,ethanol,AAIsrh,[NH3+]CCO,CC(O)C(=O)[O-],2,0.0543,,,1623,False,[NH3+]CCO.CC(O)C(=O)[O-],No changes
qEurR,295.65,101.0,1184.4,Barros et al. (2018),Liquid,0.8949,ethanol,,,[NH3+]CCO.CC(O)C(=O)[O-],2-hydroxyethylammonium lactate,AAdDEB,CCO,ethanol,AAIsrh,[NH3+]CCO,CC(O)C(=O)[O-],2,0.1051,,,1624,False,[NH3+]CCO.CC(O)C(=O)[O-],No changes
qEurR,295.65,101.0,1163.0,Barros et al. (2018),Liquid,0.794,ethanol,,,[NH3+]CCO.CC(O)C(=O)[O-],2-hydroxyethylammonium lactate,AAdDEB,CCO,ethanol,AAIsrh,[NH3+]CCO,CC(O)C(=O)[O-],2,0.206,,,1625,False,[NH3+]CCO.CC(O)C(=O)[O-],No changes
qEurR,295.65,101.0,1137.8,Barros et al. (2018),Liquid,0.6849000000000001,ethanol,,,[NH3+]CCO.CC(O)C(=O)[O-],2-hydroxyethylammonium lactate,AAdDEB,CCO,ethanol,AAIsrh,[NH3+]CCO,CC(O)C(=O)[O-],2,0.3151,,,1626,False,[NH3+]CCO.CC(O)C(=O)[O-],No changes
qEurR,295.65,101.0,1110.3,Barros et al. (2018),Liquid,0.5856,ethanol,,,[NH3+]CCO.CC(O)C(=O)[O-],2-hydroxyethylammonium lactate,AAdDEB,CCO,ethanol,AAIsrh,[NH3+]CCO,CC(O)C(=O)[O-],2,0.4144,,,1627,False,[NH3+]CCO.CC(O)C(=O)[O-],No changes
qEurR,295.65,101.0,1078.5,Barros et al. (2018),Liquid,0.4878,ethanol,,,[NH3+]CCO.CC(O)C(=O)[O-],2-hydroxyethylammonium lactate,AAdDEB,CCO,ethanol,AAIsrh,[NH3+]CCO,CC(O)C(=O)[O-],2,0.5122,,,1628,False,[NH3+]CCO.CC(O)C(=O)[O-],No changes
qEurR,295.65,101.0,1040.4,Barros et al. (2018),Liquid,0.3883999999999999,ethanol,,,[NH3+]CCO.CC(O)C(=O)[O-],2-hydroxyethylammonium lactate,AAdDEB,CCO,ethanol,AAIsrh,[NH3+]CCO,CC(O)C(=O)[O-],2,0.6116,,,1629,False,[NH3+]CCO.CC(O)C(=O)[O-],No changes
qEurR,295.65,101.0,988.1,Barros et al. (2018),Liquid,0.2768,ethanol,,,[NH3+]CCO.CC(O)C(=O)[O-],2-hydroxyethylammonium lactate,AAdDEB,CCO,ethanol,AAIsrh,[NH3+]CCO,CC(O)C(=O)[O-],2,0.7232,,,1630,False,[NH3+]CCO.CC(O)C(=O)[O-],No changes
qEurR,295.65,101.0,938.1,Barros et al. (2018),Liquid,0.1891,ethanol,,,[NH3+]CCO.CC(O)C(=O)[O-],2-hydroxyethylammonium lactate,AAdDEB,CCO,ethanol,AAIsrh,[NH3+]CCO,CC(O)C(=O)[O-],2,0.8109,,,1631,False,[NH3+]CCO.CC(O)C(=O)[O-],No changes
qEurR,295.65,101.0,836.3,Barros et al. (2018),Liquid,0.0472,ethanol,,,[NH3+]CCO.CC(O)C(=O)[O-],2-hydroxyethylammonium lactate,AAdDEB,CCO,ethanol,AAIsrh,[NH3+]CCO,CC(O)C(=O)[O-],2,0.9528,,,1632,False,[NH3+]CCO.CC(O)C(=O)[O-],No changes
qEurR,298.15,101.0,1191.0,Barros et al. (2018),Liquid,0.9457,ethanol,,,[NH3+]CCO.CC(O)C(=O)[O-],2-hydroxyethylammonium lactate,AAdDEB,CCO,ethanol,AAIsrh,[NH3+]CCO,CC(O)C(=O)[O-],2,0.0543,,,1633,False,[NH3+]CCO.CC(O)C(=O)[O-],No changes
qEurR,298.15,101.0,1182.8,Barros et al. (2018),Liquid,0.8949,ethanol,,,[NH3+]CCO.CC(O)C(=O)[O-],2-hydroxyethylammonium lactate,AAdDEB,CCO,ethanol,AAIsrh,[NH3+]CCO,CC(O)C(=O)[O-],2,0.1051,,,1634,False,[NH3+]CCO.CC(O)C(=O)[O-],No changes
qEurR,298.15,101.0,1161.4,Barros et al. (2018),Liquid,0.794,ethanol,,,[NH3+]CCO.CC(O)C(=O)[O-],2-hydroxyethylammonium lactate,AAdDEB,CCO,ethanol,AAIsrh,[NH3+]CCO,CC(O)C(=O)[O-],2,0.206,,,1635,False,[NH3+]CCO.CC(O)C(=O)[O-],No changes
qEurR,298.15,101.0,1136.1,Barros et al. (2018),Liquid,0.6849000000000001,ethanol,,,[NH3+]CCO.CC(O)C(=O)[O-],2-hydroxyethylammonium lactate,AAdDEB,CCO,ethanol,AAIsrh,[NH3+]CCO,CC(O)C(=O)[O-],2,0.3151,,,1636,False,[NH3+]CCO.CC(O)C(=O)[O-],No changes
qEurR,298.15,101.0,1108.7,Barros et al. (2018),Liquid,0.5856,ethanol,,,[NH3+]CCO.CC(O)C(=O)[O-],2-hydroxyethylammonium lactate,AAdDEB,CCO,ethanol,AAIsrh,[NH3+]CCO,CC(O)C(=O)[O-],2,0.4144,,,1637,False,[NH3+]CCO.CC(O)C(=O)[O-],No changes
qEurR,298.15,101.0,1076.8,Barros et al. (2018),Liquid,0.4878,ethanol,,,[NH3+]CCO.CC(O)C(=O)[O-],2-hydroxyethylammonium lactate,AAdDEB,CCO,ethanol,AAIsrh,[NH3+]CCO,CC(O)C(=O)[O-],2,0.5122,,,1638,False,[NH3+]CCO.CC(O)C(=O)[O-],No changes
qEurR,298.15,101.0,1038.6,Barros et al. (2018),Liquid,0.3883999999999999,ethanol,,,[NH3+]CCO.CC(O)C(=O)[O-],2-hydroxyethylammonium lactate,AAdDEB,CCO,ethanol,AAIsrh,[NH3+]CCO,CC(O)C(=O)[O-],2,0.6116,,,1639,False,[NH3+]CCO.CC(O)C(=O)[O-],No changes
qEurR,298.15,101.0,986.3,Barros et al. (2018),Liquid,0.2768,ethanol,,,[NH3+]CCO.CC(O)C(=O)[O-],2-hydroxyethylammonium lactate,AAdDEB,CCO,ethanol,AAIsrh,[NH3+]CCO,CC(O)C(=O)[O-],2,0.7232,,,1640,False,[NH3+]CCO.CC(O)C(=O)[O-],No changes
qEurR,298.15,101.0,936.1,Barros et al. (2018),Liquid,0.1891,ethanol,,,[NH3+]CCO.CC(O)C(=O)[O-],2-hydroxyethylammonium lactate,AAdDEB,CCO,ethanol,AAIsrh,[NH3+]CCO,CC(O)C(=O)[O-],2,0.8109,,,1641,False,[NH3+]CCO.CC(O)C(=O)[O-],No changes
qEurR,298.15,101.0,834.2,Barros et al. (2018),Liquid,0.0472,ethanol,,,[NH3+]CCO.CC(O)C(=O)[O-],2-hydroxyethylammonium lactate,AAdDEB,CCO,ethanol,AAIsrh,[NH3+]CCO,CC(O)C(=O)[O-],2,0.9528,,,1642,False,[NH3+]CCO.CC(O)C(=O)[O-],No changes
qEurR,300.65,101.0,1191.0,Barros et al. (2018),Liquid,0.9457,ethanol,,,[NH3+]CCO.CC(O)C(=O)[O-],2-hydroxyethylammonium lactate,AAdDEB,CCO,ethanol,AAIsrh,[NH3+]CCO,CC(O)C(=O)[O-],2,0.0543,,,1643,False,[NH3+]CCO.CC(O)C(=O)[O-],No changes
qEurR,300.65,101.0,1182.8,Barros et al. (2018),Liquid,0.8949,ethanol,,,[NH3+]CCO.CC(O)C(=O)[O-],2-hydroxyethylammonium lactate,AAdDEB,CCO,ethanol,AAIsrh,[NH3+]CCO,CC(O)C(=O)[O-],2,0.1051,,,1644,False,[NH3+]CCO.CC(O)C(=O)[O-],No changes
qEurR,300.65,101.0,1161.4,Barros et al. (2018),Liquid,0.794,ethanol,,,[NH3+]CCO.CC(O)C(=O)[O-],2-hydroxyethylammonium lactate,AAdDEB,CCO,ethanol,AAIsrh,[NH3+]CCO,CC(O)C(=O)[O-],2,0.206,,,1645,False,[NH3+]CCO.CC(O)C(=O)[O-],No changes
qEurR,300.65,101.0,1136.1,Barros et al. (2018),Liquid,0.6849000000000001,ethanol,,,[NH3+]CCO.CC(O)C(=O)[O-],2-hydroxyethylammonium lactate,AAdDEB,CCO,ethanol,AAIsrh,[NH3+]CCO,CC(O)C(=O)[O-],2,0.3151,,,1646,False,[NH3+]CCO.CC(O)C(=O)[O-],No changes
qEurR,300.65,101.0,1108.7,Barros et al. (2018),Liquid,0.5856,ethanol,,,[NH3+]CCO.CC(O)C(=O)[O-],2-hydroxyethylammonium lactate,AAdDEB,CCO,ethanol,AAIsrh,[NH3+]CCO,CC(O)C(=O)[O-],2,0.4144,,,1647,False,[NH3+]CCO.CC(O)C(=O)[O-],No changes
qEurR,300.65,101.0,1076.8,Barros et al. (2018),Liquid,0.4878,ethanol,,,[NH3+]CCO.CC(O)C(=O)[O-],2-hydroxyethylammonium lactate,AAdDEB,CCO,ethanol,AAIsrh,[NH3+]CCO,CC(O)C(=O)[O-],2,0.5122,,,1648,False,[NH3+]CCO.CC(O)C(=O)[O-],No changes
qEurR,300.65,101.0,1038.6,Barros et al. (2018),Liquid,0.3883999999999999,ethanol,,,[NH3+]CCO.CC(O)C(=O)[O-],2-hydroxyethylammonium lactate,AAdDEB,CCO,ethanol,AAIsrh,[NH3+]CCO,CC(O)C(=O)[O-],2,0.6116,,,1649,False,[NH3+]CCO.CC(O)C(=O)[O-],No changes
qEurR,300.65,101.0,986.3,Barros et al. (2018),Liquid,0.2768,ethanol,,,[NH3+]CCO.CC(O)C(=O)[O-],2-hydroxyethylammonium lactate,AAdDEB,CCO,ethanol,AAIsrh,[NH3+]CCO,CC(O)C(=O)[O-],2,0.7232,,,1650,False,[NH3+]CCO.CC(O)C(=O)[O-],No changes
qEurR,300.65,101.0,936.1,Barros et al. (2018),Liquid,0.1891,ethanol,,,[NH3+]CCO.CC(O)C(=O)[O-],2-hydroxyethylammonium lactate,AAdDEB,CCO,ethanol,AAIsrh,[NH3+]CCO,CC(O)C(=O)[O-],2,0.8109,,,1651,False,[NH3+]CCO.CC(O)C(=O)[O-],No changes
qEurR,300.65,101.0,834.2,Barros et al. (2018),Liquid,0.0472,ethanol,,,[NH3+]CCO.CC(O)C(=O)[O-],2-hydroxyethylammonium lactate,AAdDEB,CCO,ethanol,AAIsrh,[NH3+]CCO,CC(O)C(=O)[O-],2,0.9528,,,1652,False,[NH3+]CCO.CC(O)C(=O)[O-],No changes
qEurR,303.15,101.0,1187.9,Barros et al. (2018),Liquid,0.9457,ethanol,,,[NH3+]CCO.CC(O)C(=O)[O-],2-hydroxyethylammonium lactate,AAdDEB,CCO,ethanol,AAIsrh,[NH3+]CCO,CC(O)C(=O)[O-],2,0.0543,,,1653,False,[NH3+]CCO.CC(O)C(=O)[O-],No changes
qEurR,303.15,101.0,1179.7,Barros et al. (2018),Liquid,0.8949,ethanol,,,[NH3+]CCO.CC(O)C(=O)[O-],2-hydroxyethylammonium lactate,AAdDEB,CCO,ethanol,AAIsrh,[NH3+]CCO,CC(O)C(=O)[O-],2,0.1051,,,1654,False,[NH3+]CCO.CC(O)C(=O)[O-],No changes
qEurR,303.15,101.0,1158.2,Barros et al. (2018),Liquid,0.794,ethanol,,,[NH3+]CCO.CC(O)C(=O)[O-],2-hydroxyethylammonium lactate,AAdDEB,CCO,ethanol,AAIsrh,[NH3+]CCO,CC(O)C(=O)[O-],2,0.206,,,1655,False,[NH3+]CCO.CC(O)C(=O)[O-],No changes
qEurR,303.15,101.0,1132.9,Barros et al. (2018),Liquid,0.6849000000000001,ethanol,,,[NH3+]CCO.CC(O)C(=O)[O-],2-hydroxyethylammonium lactate,AAdDEB,CCO,ethanol,AAIsrh,[NH3+]CCO,CC(O)C(=O)[O-],2,0.3151,,,1656,False,[NH3+]CCO.CC(O)C(=O)[O-],No changes
qEurR,303.15,101.0,1105.4,Barros et al. (2018),Liquid,0.5856,ethanol,,,[NH3+]CCO.CC(O)C(=O)[O-],2-hydroxyethylammonium lactate,AAdDEB,CCO,ethanol,AAIsrh,[NH3+]CCO,CC(O)C(=O)[O-],2,0.4144,,,1657,False,[NH3+]CCO.CC(O)C(=O)[O-],No changes
qEurR,303.15,101.0,1073.4,Barros et al. (2018),Liquid,0.4878,ethanol,,,[NH3+]CCO.CC(O)C(=O)[O-],2-hydroxyethylammonium lactate,AAdDEB,CCO,ethanol,AAIsrh,[NH3+]CCO,CC(O)C(=O)[O-],2,0.5122,,,1658,False,[NH3+]CCO.CC(O)C(=O)[O-],No changes
qEurR,303.15,101.0,1035.1,Barros et al. (2018),Liquid,0.3883999999999999,ethanol,,,[NH3+]CCO.CC(O)C(=O)[O-],2-hydroxyethylammonium lactate,AAdDEB,CCO,ethanol,AAIsrh,[NH3+]CCO,CC(O)C(=O)[O-],2,0.6116,,,1659,False,[NH3+]CCO.CC(O)C(=O)[O-],No changes
qEurR,303.15,101.0,982.5,Barros et al. (2018),Liquid,0.2768,ethanol,,,[NH3+]CCO.CC(O)C(=O)[O-],2-hydroxyethylammonium lactate,AAdDEB,CCO,ethanol,AAIsrh,[NH3+]CCO,CC(O)C(=O)[O-],2,0.7232,,,1660,False,[NH3+]CCO.CC(O)C(=O)[O-],No changes
qEurR,303.15,101.0,932.1,Barros et al. (2018),Liquid,0.1891,ethanol,,,[NH3+]CCO.CC(O)C(=O)[O-],2-hydroxyethylammonium lactate,AAdDEB,CCO,ethanol,AAIsrh,[NH3+]CCO,CC(O)C(=O)[O-],2,0.8109,,,1661,False,[NH3+]CCO.CC(O)C(=O)[O-],No changes
qEurR,303.15,101.0,830.0,Barros et al. (2018),Liquid,0.0472,ethanol,,,[NH3+]CCO.CC(O)C(=O)[O-],2-hydroxyethylammonium lactate,AAdDEB,CCO,ethanol,AAIsrh,[NH3+]CCO,CC(O)C(=O)[O-],2,0.9528,,,1662,False,[NH3+]CCO.CC(O)C(=O)[O-],No changes
qEurR,305.65,101.0,1186.3,Barros et al. (2018),Liquid,0.9457,ethanol,,,[NH3+]CCO.CC(O)C(=O)[O-],2-hydroxyethylammonium lactate,AAdDEB,CCO,ethanol,AAIsrh,[NH3+]CCO,CC(O)C(=O)[O-],2,0.0543,,,1663,False,[NH3+]CCO.CC(O)C(=O)[O-],No changes
qEurR,305.65,101.0,1178.1,Barros et al. (2018),Liquid,0.8949,ethanol,,,[NH3+]CCO.CC(O)C(=O)[O-],2-hydroxyethylammonium lactate,AAdDEB,CCO,ethanol,AAIsrh,[NH3+]CCO,CC(O)C(=O)[O-],2,0.1051,,,1664,False,[NH3+]CCO.CC(O)C(=O)[O-],No changes
qEurR,305.65,101.0,1156.6,Barros et al. (2018),Liquid,0.794,ethanol,,,[NH3+]CCO.CC(O)C(=O)[O-],2-hydroxyethylammonium lactate,AAdDEB,CCO,ethanol,AAIsrh,[NH3+]CCO,CC(O)C(=O)[O-],2,0.206,,,1665,False,[NH3+]CCO.CC(O)C(=O)[O-],No changes
qEurR,305.65,101.0,1131.3,Barros et al. (2018),Liquid,0.6849000000000001,ethanol,,,[NH3+]CCO.CC(O)C(=O)[O-],2-hydroxyethylammonium lactate,AAdDEB,CCO,ethanol,AAIsrh,[NH3+]CCO,CC(O)C(=O)[O-],2,0.3151,,,1666,False,[NH3+]CCO.CC(O)C(=O)[O-],No changes
qEurR,305.65,101.0,1103.7,Barros et al. (2018),Liquid,0.5856,ethanol,,,[NH3+]CCO.CC(O)C(=O)[O-],2-hydroxyethylammonium lactate,AAdDEB,CCO,ethanol,AAIsrh,[NH3+]CCO,CC(O)C(=O)[O-],2,0.4144,,,1667,False,[NH3+]CCO.CC(O)C(=O)[O-],No changes
qEurR,305.65,101.0,1071.7,Barros et al. (2018),Liquid,0.4878,ethanol,,,[NH3+]CCO.CC(O)C(=O)[O-],2-hydroxyethylammonium lactate,AAdDEB,CCO,ethanol,AAIsrh,[NH3+]CCO,CC(O)C(=O)[O-],2,0.5122,,,1668,False,[NH3+]CCO.CC(O)C(=O)[O-],No changes
qEurR,305.65,101.0,1033.3,Barros et al. (2018),Liquid,0.3883999999999999,ethanol,,,[NH3+]CCO.CC(O)C(=O)[O-],2-hydroxyethylammonium lactate,AAdDEB,CCO,ethanol,AAIsrh,[NH3+]CCO,CC(O)C(=O)[O-],2,0.6116,,,1669,False,[NH3+]CCO.CC(O)C(=O)[O-],No changes
qEurR,305.65,101.0,980.7,Barros et al. (2018),Liquid,0.2768,ethanol,,,[NH3+]CCO.CC(O)C(=O)[O-],2-hydroxyethylammonium lactate,AAdDEB,CCO,ethanol,AAIsrh,[NH3+]CCO,CC(O)C(=O)[O-],2,0.7232,,,1670,False,[NH3+]CCO.CC(O)C(=O)[O-],No changes
qEurR,305.65,101.0,930.2,Barros et al. (2018),Liquid,0.1891,ethanol,,,[NH3+]CCO.CC(O)C(=O)[O-],2-hydroxyethylammonium lactate,AAdDEB,CCO,ethanol,AAIsrh,[NH3+]CCO,CC(O)C(=O)[O-],2,0.8109,,,1671,False,[NH3+]CCO.CC(O)C(=O)[O-],No changes
qEurR,305.65,101.0,827.9,Barros et al. (2018),Liquid,0.0472,ethanol,,,[NH3+]CCO.CC(O)C(=O)[O-],2-hydroxyethylammonium lactate,AAdDEB,CCO,ethanol,AAIsrh,[NH3+]CCO,CC(O)C(=O)[O-],2,0.9528,,,1672,False,[NH3+]CCO.CC(O)C(=O)[O-],No changes
qEurR,308.15,101.0,1184.8,Barros et al. (2018),Liquid,0.9457,ethanol,,,[NH3+]CCO.CC(O)C(=O)[O-],2-hydroxyethylammonium lactate,AAdDEB,CCO,ethanol,AAIsrh,[NH3+]CCO,CC(O)C(=O)[O-],2,0.0543,,,1673,False,[NH3+]CCO.CC(O)C(=O)[O-],No changes
qEurR,308.15,101.0,1176.6,Barros et al. (2018),Liquid,0.8949,ethanol,,,[NH3+]CCO.CC(O)C(=O)[O-],2-hydroxyethylammonium lactate,AAdDEB,CCO,ethanol,AAIsrh,[NH3+]CCO,CC(O)C(=O)[O-],2,0.1051,,,1674,False,[NH3+]CCO.CC(O)C(=O)[O-],No changes
qEurR,308.15,101.0,1155.0,Barros et al. (2018),Liquid,0.794,ethanol,,,[NH3+]CCO.CC(O)C(=O)[O-],2-hydroxyethylammonium lactate,AAdDEB,CCO,ethanol,AAIsrh,[NH3+]CCO,CC(O)C(=O)[O-],2,0.206,,,1675,False,[NH3+]CCO.CC(O)C(=O)[O-],No changes
qEurR,308.15,101.0,1129.7,Barros et al. (2018),Liquid,0.6849000000000001,ethanol,,,[NH3+]CCO.CC(O)C(=O)[O-],2-hydroxyethylammonium lactate,AAdDEB,CCO,ethanol,AAIsrh,[NH3+]CCO,CC(O)C(=O)[O-],2,0.3151,,,1676,False,[NH3+]CCO.CC(O)C(=O)[O-],No changes
qEurR,308.15,101.0,1102.1,Barros et al. (2018),Liquid,0.5856,ethanol,,,[NH3+]CCO.CC(O)C(=O)[O-],2-hydroxyethylammonium lactate,AAdDEB,CCO,ethanol,AAIsrh,[NH3+]CCO,CC(O)C(=O)[O-],2,0.4144,,,1677,False,[NH3+]CCO.CC(O)C(=O)[O-],No changes
qEurR,308.15,101.0,1070.0,Barros et al. (2018),Liquid,0.4878,ethanol,,,[NH3+]CCO.CC(O)C(=O)[O-],2-hydroxyethylammonium lactate,AAdDEB,CCO,ethanol,AAIsrh,[NH3+]CCO,CC(O)C(=O)[O-],2,0.5122,,,1678,False,[NH3+]CCO.CC(O)C(=O)[O-],No changes
qEurR,308.15,101.0,1031.5,Barros et al. (2018),Liquid,0.3883999999999999,ethanol,,,[NH3+]CCO.CC(O)C(=O)[O-],2-hydroxyethylammonium lactate,AAdDEB,CCO,ethanol,AAIsrh,[NH3+]CCO,CC(O)C(=O)[O-],2,0.6116,,,1679,False,[NH3+]CCO.CC(O)C(=O)[O-],No changes
qEurR,308.15,101.0,978.8,Barros et al. (2018),Liquid,0.2768,ethanol,,,[NH3+]CCO.CC(O)C(=O)[O-],2-hydroxyethylammonium lactate,AAdDEB,CCO,ethanol,AAIsrh,[NH3+]CCO,CC(O)C(=O)[O-],2,0.7232,,,1680,False,[NH3+]CCO.CC(O)C(=O)[O-],No changes