setid,Temperature (K),Pressure (kPa),Density (kg/m3),reference,phases,Mole fraction,Mole fraction of compound name,Weight fraction,Weight fraction of compound name,IL_SMILES,IL_name,IL_ID,Solvent_SMILES,Solvent_name,Solvent_ID,IL_cation_SMILES,IL_anion_SMILES,IL_component_number,Mole fraction of solvent,IL_MW,Solvent_MW,Record_ID,Contains_Metal,Standardized_IL_SMILES,Changes
OYAGg,293.15,100.0,1062.0,Hou et al. (2014),Liquid,0.5903,"1,3-dimethylimidazolium acetate",,,Cn1cc[n+](C)c1.CC(=O)[O-],"1,3-dimethylimidazolium acetate",AAeBvd,CCO,ethanol,AAIsrh,Cn1cc[n+](C)c1,CC(=O)[O-],2,,,,659,False,Cn1cc[n+](C)c1.CC(=O)[O-],No changes
OYAGg,293.15,100.0,1089.9,Hou et al. (2014),Liquid,0.7305,"1,3-dimethylimidazolium acetate",,,Cn1cc[n+](C)c1.CC(=O)[O-],"1,3-dimethylimidazolium acetate",AAeBvd,CCO,ethanol,AAIsrh,Cn1cc[n+](C)c1,CC(=O)[O-],2,,,,660,False,Cn1cc[n+](C)c1.CC(=O)[O-],No changes
OYAGg,293.15,100.0,1111.5,Hou et al. (2014),Liquid,0.8659,"1,3-dimethylimidazolium acetate",,,Cn1cc[n+](C)c1.CC(=O)[O-],"1,3-dimethylimidazolium acetate",AAeBvd,CCO,ethanol,AAIsrh,Cn1cc[n+](C)c1,CC(=O)[O-],2,,,,661,False,Cn1cc[n+](C)c1.CC(=O)[O-],No changes
OYAGg,293.15,100.0,1120.3,Hou et al. (2014),Liquid,0.9306,"1,3-dimethylimidazolium acetate",,,Cn1cc[n+](C)c1.CC(=O)[O-],"1,3-dimethylimidazolium acetate",AAeBvd,CCO,ethanol,AAIsrh,Cn1cc[n+](C)c1,CC(=O)[O-],2,,,,662,False,Cn1cc[n+](C)c1.CC(=O)[O-],No changes
OYAGg,293.15,100.0,1128.9,Hou et al. (2014),Liquid,1.0,"1,3-dimethylimidazolium acetate",,,Cn1cc[n+](C)c1.CC(=O)[O-],"1,3-dimethylimidazolium acetate",AAeBvd,CCO,ethanol,AAIsrh,Cn1cc[n+](C)c1,CC(=O)[O-],2,,,,663,False,Cn1cc[n+](C)c1.CC(=O)[O-],No changes
COHRj,298.15,101.0,787.9,Zhao et al. (2012),Liquid,0.0,1-ethyl-3-methylimidazolium nitrate,,,CC[n+]1ccn(C)c1.O=[N+]([O-])[O-],1-ethyl-3-methylimidazolium nitrate,AAhPAz,CCO,ethanol,AAIsrh,CC[n+]1ccn(C)c1,O=[N+]([O-])[O-],2,,,,664,False,CC[n+]1ccn(C)c1.O=[N+]([O-])[O-],No changes
COHRj,298.15,101.0,891.3,Zhao et al. (2012),Liquid,0.0995,1-ethyl-3-methylimidazolium nitrate,,,CC[n+]1ccn(C)c1.O=[N+]([O-])[O-],1-ethyl-3-methylimidazolium nitrate,AAhPAz,CCO,ethanol,AAIsrh,CC[n+]1ccn(C)c1,O=[N+]([O-])[O-],2,,,,665,False,CC[n+]1ccn(C)c1.O=[N+]([O-])[O-],No changes
COHRj,298.15,101.0,958.3,Zhao et al. (2012),Liquid,0.201,1-ethyl-3-methylimidazolium nitrate,,,CC[n+]1ccn(C)c1.O=[N+]([O-])[O-],1-ethyl-3-methylimidazolium nitrate,AAhPAz,CCO,ethanol,AAIsrh,CC[n+]1ccn(C)c1,O=[N+]([O-])[O-],2,,,,666,False,CC[n+]1ccn(C)c1.O=[N+]([O-])[O-],No changes
COHRj,298.15,101.0,1009.1,Zhao et al. (2012),Liquid,0.2937,1-ethyl-3-methylimidazolium nitrate,,,CC[n+]1ccn(C)c1.O=[N+]([O-])[O-],1-ethyl-3-methylimidazolium nitrate,AAhPAz,CCO,ethanol,AAIsrh,CC[n+]1ccn(C)c1,O=[N+]([O-])[O-],2,,,,667,False,CC[n+]1ccn(C)c1.O=[N+]([O-])[O-],No changes
COHRj,298.15,101.0,1054.8,Zhao et al. (2012),Liquid,0.4,1-ethyl-3-methylimidazolium nitrate,,,CC[n+]1ccn(C)c1.O=[N+]([O-])[O-],1-ethyl-3-methylimidazolium nitrate,AAhPAz,CCO,ethanol,AAIsrh,CC[n+]1ccn(C)c1,O=[N+]([O-])[O-],2,,,,668,False,CC[n+]1ccn(C)c1.O=[N+]([O-])[O-],No changes
COHRj,298.15,101.0,1089.4,Zhao et al. (2012),Liquid,0.5,1-ethyl-3-methylimidazolium nitrate,,,CC[n+]1ccn(C)c1.O=[N+]([O-])[O-],1-ethyl-3-methylimidazolium nitrate,AAhPAz,CCO,ethanol,AAIsrh,CC[n+]1ccn(C)c1,O=[N+]([O-])[O-],2,,,,669,False,CC[n+]1ccn(C)c1.O=[N+]([O-])[O-],No changes
COHRj,298.15,101.0,1117.0,Zhao et al. (2012),Liquid,0.6004,1-ethyl-3-methylimidazolium nitrate,,,CC[n+]1ccn(C)c1.O=[N+]([O-])[O-],1-ethyl-3-methylimidazolium nitrate,AAhPAz,CCO,ethanol,AAIsrh,CC[n+]1ccn(C)c1,O=[N+]([O-])[O-],2,,,,670,False,CC[n+]1ccn(C)c1.O=[N+]([O-])[O-],No changes
COHRj,298.15,101.0,1130.8,Zhao et al. (2012),Liquid,0.668,1-ethyl-3-methylimidazolium nitrate,,,CC[n+]1ccn(C)c1.O=[N+]([O-])[O-],1-ethyl-3-methylimidazolium nitrate,AAhPAz,CCO,ethanol,AAIsrh,CC[n+]1ccn(C)c1,O=[N+]([O-])[O-],2,,,,671,False,CC[n+]1ccn(C)c1.O=[N+]([O-])[O-],No changes
COHRj,298.15,101.0,1157.2,Zhao et al. (2012),Liquid,0.8,1-ethyl-3-methylimidazolium nitrate,,,CC[n+]1ccn(C)c1.O=[N+]([O-])[O-],1-ethyl-3-methylimidazolium nitrate,AAhPAz,CCO,ethanol,AAIsrh,CC[n+]1ccn(C)c1,O=[N+]([O-])[O-],2,,,,672,False,CC[n+]1ccn(C)c1.O=[N+]([O-])[O-],No changes
COHRj,298.15,101.0,1176.5,Zhao et al. (2012),Liquid,0.9,1-ethyl-3-methylimidazolium nitrate,,,CC[n+]1ccn(C)c1.O=[N+]([O-])[O-],1-ethyl-3-methylimidazolium nitrate,AAhPAz,CCO,ethanol,AAIsrh,CC[n+]1ccn(C)c1,O=[N+]([O-])[O-],2,,,,673,False,CC[n+]1ccn(C)c1.O=[N+]([O-])[O-],No changes
COHRj,298.15,101.0,1208.5,Zhao et al. (2012),Liquid,1.0,1-ethyl-3-methylimidazolium nitrate,,,CC[n+]1ccn(C)c1.O=[N+]([O-])[O-],1-ethyl-3-methylimidazolium nitrate,AAhPAz,CCO,ethanol,AAIsrh,CC[n+]1ccn(C)c1,O=[N+]([O-])[O-],2,,,,674,False,CC[n+]1ccn(C)c1.O=[N+]([O-])[O-],No changes
eblSB,298.15,101.3,891.17,Hwang et al. (2011a),Liquid,0.9384,ethanol,,,CCCCCCCCCCCCCC[P+](CCCCCC)(CCCCCC)CCCCCC.[Cl-],trihexyl(tetradecyl)phosphonium chloride,ABvtRE,CCO,ethanol,AAIsrh,CCCCCCCCCCCCCC[P+](CCCCCC)(CCCCCC)CCCCCC,[Cl-],2,0.0616,,,675,False,CCCCCCCCCCCCCC[P+](CCCCCC)(CCCCCC)CCCCCC.[Cl-],No changes
eblSB,298.15,101.3,890.69,Hwang et al. (2011a),Liquid,0.8947,ethanol,,,CCCCCCCCCCCCCC[P+](CCCCCC)(CCCCCC)CCCCCC.[Cl-],trihexyl(tetradecyl)phosphonium chloride,ABvtRE,CCO,ethanol,AAIsrh,CCCCCCCCCCCCCC[P+](CCCCCC)(CCCCCC)CCCCCC,[Cl-],2,0.1053,,,676,False,CCCCCCCCCCCCCC[P+](CCCCCC)(CCCCCC)CCCCCC.[Cl-],No changes
eblSB,298.15,101.3,889.27,Hwang et al. (2011a),Liquid,0.7887,ethanol,,,CCCCCCCCCCCCCC[P+](CCCCCC)(CCCCCC)CCCCCC.[Cl-],trihexyl(tetradecyl)phosphonium chloride,ABvtRE,CCO,ethanol,AAIsrh,CCCCCCCCCCCCCC[P+](CCCCCC)(CCCCCC)CCCCCC,[Cl-],2,0.2113,,,677,False,CCCCCCCCCCCCCC[P+](CCCCCC)(CCCCCC)CCCCCC.[Cl-],No changes
eblSB,298.15,101.3,887.74,Hwang et al. (2011a),Liquid,0.6961999999999999,ethanol,,,CCCCCCCCCCCCCC[P+](CCCCCC)(CCCCCC)CCCCCC.[Cl-],trihexyl(tetradecyl)phosphonium chloride,ABvtRE,CCO,ethanol,AAIsrh,CCCCCCCCCCCCCC[P+](CCCCCC)(CCCCCC)CCCCCC,[Cl-],2,0.3038,,,678,False,CCCCCCCCCCCCCC[P+](CCCCCC)(CCCCCC)CCCCCC.[Cl-],No changes
eblSB,298.15,101.3,885.65,Hwang et al. (2011a),Liquid,0.5966,ethanol,,,CCCCCCCCCCCCCC[P+](CCCCCC)(CCCCCC)CCCCCC.[Cl-],trihexyl(tetradecyl)phosphonium chloride,ABvtRE,CCO,ethanol,AAIsrh,CCCCCCCCCCCCCC[P+](CCCCCC)(CCCCCC)CCCCCC,[Cl-],2,0.4034,,,679,False,CCCCCCCCCCCCCC[P+](CCCCCC)(CCCCCC)CCCCCC.[Cl-],No changes
eblSB,298.15,101.3,882.9,Hwang et al. (2011a),Liquid,0.501,ethanol,,,CCCCCCCCCCCCCC[P+](CCCCCC)(CCCCCC)CCCCCC.[Cl-],trihexyl(tetradecyl)phosphonium chloride,ABvtRE,CCO,ethanol,AAIsrh,CCCCCCCCCCCCCC[P+](CCCCCC)(CCCCCC)CCCCCC,[Cl-],2,0.499,,,680,False,CCCCCCCCCCCCCC[P+](CCCCCC)(CCCCCC)CCCCCC.[Cl-],No changes
eblSB,298.15,101.3,878.9,Hwang et al. (2011a),Liquid,0.3995999999999999,ethanol,,,CCCCCCCCCCCCCC[P+](CCCCCC)(CCCCCC)CCCCCC.[Cl-],trihexyl(tetradecyl)phosphonium chloride,ABvtRE,CCO,ethanol,AAIsrh,CCCCCCCCCCCCCC[P+](CCCCCC)(CCCCCC)CCCCCC,[Cl-],2,0.6004,,,681,False,CCCCCCCCCCCCCC[P+](CCCCCC)(CCCCCC)CCCCCC.[Cl-],No changes
eblSB,298.15,101.3,872.77,Hwang et al. (2011a),Liquid,0.2962,ethanol,,,CCCCCCCCCCCCCC[P+](CCCCCC)(CCCCCC)CCCCCC.[Cl-],trihexyl(tetradecyl)phosphonium chloride,ABvtRE,CCO,ethanol,AAIsrh,CCCCCCCCCCCCCC[P+](CCCCCC)(CCCCCC)CCCCCC,[Cl-],2,0.7038,,,682,False,CCCCCCCCCCCCCC[P+](CCCCCC)(CCCCCC)CCCCCC.[Cl-],No changes
eblSB,298.15,101.3,863.65,Hwang et al. (2011a),Liquid,0.2007,ethanol,,,CCCCCCCCCCCCCC[P+](CCCCCC)(CCCCCC)CCCCCC.[Cl-],trihexyl(tetradecyl)phosphonium chloride,ABvtRE,CCO,ethanol,AAIsrh,CCCCCCCCCCCCCC[P+](CCCCCC)(CCCCCC)CCCCCC,[Cl-],2,0.7993,,,683,False,CCCCCCCCCCCCCC[P+](CCCCCC)(CCCCCC)CCCCCC.[Cl-],No changes
eblSB,298.15,101.3,845.08,Hwang et al. (2011a),Liquid,0.1000999999999999,ethanol,,,CCCCCCCCCCCCCC[P+](CCCCCC)(CCCCCC)CCCCCC.[Cl-],trihexyl(tetradecyl)phosphonium chloride,ABvtRE,CCO,ethanol,AAIsrh,CCCCCCCCCCCCCC[P+](CCCCCC)(CCCCCC)CCCCCC,[Cl-],2,0.8999,,,684,False,CCCCCCCCCCCCCC[P+](CCCCCC)(CCCCCC)CCCCCC.[Cl-],No changes
eblSB,298.15,101.3,826.4,Hwang et al. (2011a),Liquid,0.0503,ethanol,,,CCCCCCCCCCCCCC[P+](CCCCCC)(CCCCCC)CCCCCC.[Cl-],trihexyl(tetradecyl)phosphonium chloride,ABvtRE,CCO,ethanol,AAIsrh,CCCCCCCCCCCCCC[P+](CCCCCC)(CCCCCC)CCCCCC,[Cl-],2,0.9497,,,685,False,CCCCCCCCCCCCCC[P+](CCCCCC)(CCCCCC)CCCCCC.[Cl-],No changes
eblSB,298.15,101.3,805.94,Hwang et al. (2011a),Liquid,0.0191999999999999,ethanol,,,CCCCCCCCCCCCCC[P+](CCCCCC)(CCCCCC)CCCCCC.[Cl-],trihexyl(tetradecyl)phosphonium chloride,ABvtRE,CCO,ethanol,AAIsrh,CCCCCCCCCCCCCC[P+](CCCCCC)(CCCCCC)CCCCCC,[Cl-],2,0.9808,,,686,False,CCCCCCCCCCCCCC[P+](CCCCCC)(CCCCCC)CCCCCC.[Cl-],No changes
RwmNg,293.15,100.0,789.62,Lu et al. (2015),Liquid,0.0,"2-ethyl-1,1,3,3-tetramethylguanidinium bis(trifluoromethanesulfonyl)imide",,,CC[NH+]=C(N(C)C)N(C)C.O=S(=O)([N-]S(=O)(=O)C(F)(F)F)C(F)(F)F,"2-ethyl-1,1,3,3-tetramethylguanidinium bis(trifluoromethanesulfonyl)imide",ABdfIc,CCO,ethanol,AAIsrh,CC[NH+]=C(N(C)C)N(C)C,O=S(=O)([N-]S(=O)(=O)C(F)(F)F)C(F)(F)F,2,,,,687,False,CC[NH+]=C(N(C)C)N(C)C.O=S(=O)([N-]S(=O)(=O)C(F)(F)F)C(F)(F)F,No changes
RwmNg,293.15,100.0,1023.01,Lu et al. (2015),Liquid,0.1006,"2-ethyl-1,1,3,3-tetramethylguanidinium bis(trifluoromethanesulfonyl)imide",,,CC[NH+]=C(N(C)C)N(C)C.O=S(=O)([N-]S(=O)(=O)C(F)(F)F)C(F)(F)F,"2-ethyl-1,1,3,3-tetramethylguanidinium bis(trifluoromethanesulfonyl)imide",ABdfIc,CCO,ethanol,AAIsrh,CC[NH+]=C(N(C)C)N(C)C,O=S(=O)([N-]S(=O)(=O)C(F)(F)F)C(F)(F)F,2,,,,688,False,CC[NH+]=C(N(C)C)N(C)C.O=S(=O)([N-]S(=O)(=O)C(F)(F)F)C(F)(F)F,No changes
RwmNg,293.15,100.0,1148.25,Lu et al. (2015),Liquid,0.2004,"2-ethyl-1,1,3,3-tetramethylguanidinium bis(trifluoromethanesulfonyl)imide",,,CC[NH+]=C(N(C)C)N(C)C.O=S(=O)([N-]S(=O)(=O)C(F)(F)F)C(F)(F)F,"2-ethyl-1,1,3,3-tetramethylguanidinium bis(trifluoromethanesulfonyl)imide",ABdfIc,CCO,ethanol,AAIsrh,CC[NH+]=C(N(C)C)N(C)C,O=S(=O)([N-]S(=O)(=O)C(F)(F)F)C(F)(F)F,2,,,,689,False,CC[NH+]=C(N(C)C)N(C)C.O=S(=O)([N-]S(=O)(=O)C(F)(F)F)C(F)(F)F,No changes
RwmNg,293.15,100.0,1225.9,Lu et al. (2015),Liquid,0.3001,"2-ethyl-1,1,3,3-tetramethylguanidinium bis(trifluoromethanesulfonyl)imide",,,CC[NH+]=C(N(C)C)N(C)C.O=S(=O)([N-]S(=O)(=O)C(F)(F)F)C(F)(F)F,"2-ethyl-1,1,3,3-tetramethylguanidinium bis(trifluoromethanesulfonyl)imide",ABdfIc,CCO,ethanol,AAIsrh,CC[NH+]=C(N(C)C)N(C)C,O=S(=O)([N-]S(=O)(=O)C(F)(F)F)C(F)(F)F,2,,,,690,False,CC[NH+]=C(N(C)C)N(C)C.O=S(=O)([N-]S(=O)(=O)C(F)(F)F)C(F)(F)F,No changes
RwmNg,293.15,100.0,1278.7,Lu et al. (2015),Liquid,0.4005,"2-ethyl-1,1,3,3-tetramethylguanidinium bis(trifluoromethanesulfonyl)imide",,,CC[NH+]=C(N(C)C)N(C)C.O=S(=O)([N-]S(=O)(=O)C(F)(F)F)C(F)(F)F,"2-ethyl-1,1,3,3-tetramethylguanidinium bis(trifluoromethanesulfonyl)imide",ABdfIc,CCO,ethanol,AAIsrh,CC[NH+]=C(N(C)C)N(C)C,O=S(=O)([N-]S(=O)(=O)C(F)(F)F)C(F)(F)F,2,,,,691,False,CC[NH+]=C(N(C)C)N(C)C.O=S(=O)([N-]S(=O)(=O)C(F)(F)F)C(F)(F)F,No changes
RwmNg,293.15,100.0,1317.0,Lu et al. (2015),Liquid,0.5018,"2-ethyl-1,1,3,3-tetramethylguanidinium bis(trifluoromethanesulfonyl)imide",,,CC[NH+]=C(N(C)C)N(C)C.O=S(=O)([N-]S(=O)(=O)C(F)(F)F)C(F)(F)F,"2-ethyl-1,1,3,3-tetramethylguanidinium bis(trifluoromethanesulfonyl)imide",ABdfIc,CCO,ethanol,AAIsrh,CC[NH+]=C(N(C)C)N(C)C,O=S(=O)([N-]S(=O)(=O)C(F)(F)F)C(F)(F)F,2,,,,692,False,CC[NH+]=C(N(C)C)N(C)C.O=S(=O)([N-]S(=O)(=O)C(F)(F)F)C(F)(F)F,No changes
RwmNg,293.15,100.0,1345.5,Lu et al. (2015),Liquid,0.6011,"2-ethyl-1,1,3,3-tetramethylguanidinium bis(trifluoromethanesulfonyl)imide",,,CC[NH+]=C(N(C)C)N(C)C.O=S(=O)([N-]S(=O)(=O)C(F)(F)F)C(F)(F)F,"2-ethyl-1,1,3,3-tetramethylguanidinium bis(trifluoromethanesulfonyl)imide",ABdfIc,CCO,ethanol,AAIsrh,CC[NH+]=C(N(C)C)N(C)C,O=S(=O)([N-]S(=O)(=O)C(F)(F)F)C(F)(F)F,2,,,,693,False,CC[NH+]=C(N(C)C)N(C)C.O=S(=O)([N-]S(=O)(=O)C(F)(F)F)C(F)(F)F,No changes
RwmNg,293.15,100.0,1367.7,Lu et al. (2015),Liquid,0.6999,"2-ethyl-1,1,3,3-tetramethylguanidinium bis(trifluoromethanesulfonyl)imide",,,CC[NH+]=C(N(C)C)N(C)C.O=S(=O)([N-]S(=O)(=O)C(F)(F)F)C(F)(F)F,"2-ethyl-1,1,3,3-tetramethylguanidinium bis(trifluoromethanesulfonyl)imide",ABdfIc,CCO,ethanol,AAIsrh,CC[NH+]=C(N(C)C)N(C)C,O=S(=O)([N-]S(=O)(=O)C(F)(F)F)C(F)(F)F,2,,,,694,False,CC[NH+]=C(N(C)C)N(C)C.O=S(=O)([N-]S(=O)(=O)C(F)(F)F)C(F)(F)F,No changes
RwmNg,293.15,100.0,1386.7,Lu et al. (2015),Liquid,0.802,"2-ethyl-1,1,3,3-tetramethylguanidinium bis(trifluoromethanesulfonyl)imide",,,CC[NH+]=C(N(C)C)N(C)C.O=S(=O)([N-]S(=O)(=O)C(F)(F)F)C(F)(F)F,"2-ethyl-1,1,3,3-tetramethylguanidinium bis(trifluoromethanesulfonyl)imide",ABdfIc,CCO,ethanol,AAIsrh,CC[NH+]=C(N(C)C)N(C)C,O=S(=O)([N-]S(=O)(=O)C(F)(F)F)C(F)(F)F,2,,,,695,False,CC[NH+]=C(N(C)C)N(C)C.O=S(=O)([N-]S(=O)(=O)C(F)(F)F)C(F)(F)F,No changes
RwmNg,293.15,100.0,1400.7,Lu et al. (2015),Liquid,0.892,"2-ethyl-1,1,3,3-tetramethylguanidinium bis(trifluoromethanesulfonyl)imide",,,CC[NH+]=C(N(C)C)N(C)C.O=S(=O)([N-]S(=O)(=O)C(F)(F)F)C(F)(F)F,"2-ethyl-1,1,3,3-tetramethylguanidinium bis(trifluoromethanesulfonyl)imide",ABdfIc,CCO,ethanol,AAIsrh,CC[NH+]=C(N(C)C)N(C)C,O=S(=O)([N-]S(=O)(=O)C(F)(F)F)C(F)(F)F,2,,,,696,False,CC[NH+]=C(N(C)C)N(C)C.O=S(=O)([N-]S(=O)(=O)C(F)(F)F)C(F)(F)F,No changes
RwmNg,293.15,100.0,1415.0,Lu et al. (2015),Liquid,1.0,"2-ethyl-1,1,3,3-tetramethylguanidinium bis(trifluoromethanesulfonyl)imide",,,CC[NH+]=C(N(C)C)N(C)C.O=S(=O)([N-]S(=O)(=O)C(F)(F)F)C(F)(F)F,"2-ethyl-1,1,3,3-tetramethylguanidinium bis(trifluoromethanesulfonyl)imide",ABdfIc,CCO,ethanol,AAIsrh,CC[NH+]=C(N(C)C)N(C)C,O=S(=O)([N-]S(=O)(=O)C(F)(F)F)C(F)(F)F,2,,,,697,False,CC[NH+]=C(N(C)C)N(C)C.O=S(=O)([N-]S(=O)(=O)C(F)(F)F)C(F)(F)F,No changes
RwmNg,298.15,100.0,785.25,Lu et al. (2015),Liquid,0.0,"2-ethyl-1,1,3,3-tetramethylguanidinium bis(trifluoromethanesulfonyl)imide",,,CC[NH+]=C(N(C)C)N(C)C.O=S(=O)([N-]S(=O)(=O)C(F)(F)F)C(F)(F)F,"2-ethyl-1,1,3,3-tetramethylguanidinium bis(trifluoromethanesulfonyl)imide",ABdfIc,CCO,ethanol,AAIsrh,CC[NH+]=C(N(C)C)N(C)C,O=S(=O)([N-]S(=O)(=O)C(F)(F)F)C(F)(F)F,2,,,,698,False,CC[NH+]=C(N(C)C)N(C)C.O=S(=O)([N-]S(=O)(=O)C(F)(F)F)C(F)(F)F,No changes
RwmNg,298.15,100.0,1018.29,Lu et al. (2015),Liquid,0.1006,"2-ethyl-1,1,3,3-tetramethylguanidinium bis(trifluoromethanesulfonyl)imide",,,CC[NH+]=C(N(C)C)N(C)C.O=S(=O)([N-]S(=O)(=O)C(F)(F)F)C(F)(F)F,"2-ethyl-1,1,3,3-tetramethylguanidinium bis(trifluoromethanesulfonyl)imide",ABdfIc,CCO,ethanol,AAIsrh,CC[NH+]=C(N(C)C)N(C)C,O=S(=O)([N-]S(=O)(=O)C(F)(F)F)C(F)(F)F,2,,,,699,False,CC[NH+]=C(N(C)C)N(C)C.O=S(=O)([N-]S(=O)(=O)C(F)(F)F)C(F)(F)F,No changes
RwmNg,298.15,100.0,1143.37,Lu et al. (2015),Liquid,0.2004,"2-ethyl-1,1,3,3-tetramethylguanidinium bis(trifluoromethanesulfonyl)imide",,,CC[NH+]=C(N(C)C)N(C)C.O=S(=O)([N-]S(=O)(=O)C(F)(F)F)C(F)(F)F,"2-ethyl-1,1,3,3-tetramethylguanidinium bis(trifluoromethanesulfonyl)imide",ABdfIc,CCO,ethanol,AAIsrh,CC[NH+]=C(N(C)C)N(C)C,O=S(=O)([N-]S(=O)(=O)C(F)(F)F)C(F)(F)F,2,,,,700,False,CC[NH+]=C(N(C)C)N(C)C.O=S(=O)([N-]S(=O)(=O)C(F)(F)F)C(F)(F)F,No changes
RwmNg,298.15,100.0,1221.1,Lu et al. (2015),Liquid,0.3001,"2-ethyl-1,1,3,3-tetramethylguanidinium bis(trifluoromethanesulfonyl)imide",,,CC[NH+]=C(N(C)C)N(C)C.O=S(=O)([N-]S(=O)(=O)C(F)(F)F)C(F)(F)F,"2-ethyl-1,1,3,3-tetramethylguanidinium bis(trifluoromethanesulfonyl)imide",ABdfIc,CCO,ethanol,AAIsrh,CC[NH+]=C(N(C)C)N(C)C,O=S(=O)([N-]S(=O)(=O)C(F)(F)F)C(F)(F)F,2,,,,701,False,CC[NH+]=C(N(C)C)N(C)C.O=S(=O)([N-]S(=O)(=O)C(F)(F)F)C(F)(F)F,No changes
RwmNg,298.15,100.0,1273.8,Lu et al. (2015),Liquid,0.4005,"2-ethyl-1,1,3,3-tetramethylguanidinium bis(trifluoromethanesulfonyl)imide",,,CC[NH+]=C(N(C)C)N(C)C.O=S(=O)([N-]S(=O)(=O)C(F)(F)F)C(F)(F)F,"2-ethyl-1,1,3,3-tetramethylguanidinium bis(trifluoromethanesulfonyl)imide",ABdfIc,CCO,ethanol,AAIsrh,CC[NH+]=C(N(C)C)N(C)C,O=S(=O)([N-]S(=O)(=O)C(F)(F)F)C(F)(F)F,2,,,,702,False,CC[NH+]=C(N(C)C)N(C)C.O=S(=O)([N-]S(=O)(=O)C(F)(F)F)C(F)(F)F,No changes
RwmNg,298.15,100.0,1312.1,Lu et al. (2015),Liquid,0.5018,"2-ethyl-1,1,3,3-tetramethylguanidinium bis(trifluoromethanesulfonyl)imide",,,CC[NH+]=C(N(C)C)N(C)C.O=S(=O)([N-]S(=O)(=O)C(F)(F)F)C(F)(F)F,"2-ethyl-1,1,3,3-tetramethylguanidinium bis(trifluoromethanesulfonyl)imide",ABdfIc,CCO,ethanol,AAIsrh,CC[NH+]=C(N(C)C)N(C)C,O=S(=O)([N-]S(=O)(=O)C(F)(F)F)C(F)(F)F,2,,,,703,False,CC[NH+]=C(N(C)C)N(C)C.O=S(=O)([N-]S(=O)(=O)C(F)(F)F)C(F)(F)F,No changes
RwmNg,298.15,100.0,1340.6,Lu et al. (2015),Liquid,0.6011,"2-ethyl-1,1,3,3-tetramethylguanidinium bis(trifluoromethanesulfonyl)imide",,,CC[NH+]=C(N(C)C)N(C)C.O=S(=O)([N-]S(=O)(=O)C(F)(F)F)C(F)(F)F,"2-ethyl-1,1,3,3-tetramethylguanidinium bis(trifluoromethanesulfonyl)imide",ABdfIc,CCO,ethanol,AAIsrh,CC[NH+]=C(N(C)C)N(C)C,O=S(=O)([N-]S(=O)(=O)C(F)(F)F)C(F)(F)F,2,,,,704,False,CC[NH+]=C(N(C)C)N(C)C.O=S(=O)([N-]S(=O)(=O)C(F)(F)F)C(F)(F)F,No changes
RwmNg,298.15,100.0,1362.8,Lu et al. (2015),Liquid,0.6999,"2-ethyl-1,1,3,3-tetramethylguanidinium bis(trifluoromethanesulfonyl)imide",,,CC[NH+]=C(N(C)C)N(C)C.O=S(=O)([N-]S(=O)(=O)C(F)(F)F)C(F)(F)F,"2-ethyl-1,1,3,3-tetramethylguanidinium bis(trifluoromethanesulfonyl)imide",ABdfIc,CCO,ethanol,AAIsrh,CC[NH+]=C(N(C)C)N(C)C,O=S(=O)([N-]S(=O)(=O)C(F)(F)F)C(F)(F)F,2,,,,705,False,CC[NH+]=C(N(C)C)N(C)C.O=S(=O)([N-]S(=O)(=O)C(F)(F)F)C(F)(F)F,No changes
RwmNg,298.15,100.0,1381.8,Lu et al. (2015),Liquid,0.802,"2-ethyl-1,1,3,3-tetramethylguanidinium bis(trifluoromethanesulfonyl)imide",,,CC[NH+]=C(N(C)C)N(C)C.O=S(=O)([N-]S(=O)(=O)C(F)(F)F)C(F)(F)F,"2-ethyl-1,1,3,3-tetramethylguanidinium bis(trifluoromethanesulfonyl)imide",ABdfIc,CCO,ethanol,AAIsrh,CC[NH+]=C(N(C)C)N(C)C,O=S(=O)([N-]S(=O)(=O)C(F)(F)F)C(F)(F)F,2,,,,706,False,CC[NH+]=C(N(C)C)N(C)C.O=S(=O)([N-]S(=O)(=O)C(F)(F)F)C(F)(F)F,No changes
RwmNg,298.15,100.0,1395.8,Lu et al. (2015),Liquid,0.892,"2-ethyl-1,1,3,3-tetramethylguanidinium bis(trifluoromethanesulfonyl)imide",,,CC[NH+]=C(N(C)C)N(C)C.O=S(=O)([N-]S(=O)(=O)C(F)(F)F)C(F)(F)F,"2-ethyl-1,1,3,3-tetramethylguanidinium bis(trifluoromethanesulfonyl)imide",ABdfIc,CCO,ethanol,AAIsrh,CC[NH+]=C(N(C)C)N(C)C,O=S(=O)([N-]S(=O)(=O)C(F)(F)F)C(F)(F)F,2,,,,707,False,CC[NH+]=C(N(C)C)N(C)C.O=S(=O)([N-]S(=O)(=O)C(F)(F)F)C(F)(F)F,No changes
RwmNg,298.15,100.0,1410.0,Lu et al. (2015),Liquid,1.0,"2-ethyl-1,1,3,3-tetramethylguanidinium bis(trifluoromethanesulfonyl)imide",,,CC[NH+]=C(N(C)C)N(C)C.O=S(=O)([N-]S(=O)(=O)C(F)(F)F)C(F)(F)F,"2-ethyl-1,1,3,3-tetramethylguanidinium bis(trifluoromethanesulfonyl)imide",ABdfIc,CCO,ethanol,AAIsrh,CC[NH+]=C(N(C)C)N(C)C,O=S(=O)([N-]S(=O)(=O)C(F)(F)F)C(F)(F)F,2,,,,708,False,CC[NH+]=C(N(C)C)N(C)C.O=S(=O)([N-]S(=O)(=O)C(F)(F)F)C(F)(F)F,No changes
RwmNg,303.15,100.0,780.89,Lu et al. (2015),Liquid,0.0,"2-ethyl-1,1,3,3-tetramethylguanidinium bis(trifluoromethanesulfonyl)imide",,,CC[NH+]=C(N(C)C)N(C)C.O=S(=O)([N-]S(=O)(=O)C(F)(F)F)C(F)(F)F,"2-ethyl-1,1,3,3-tetramethylguanidinium bis(trifluoromethanesulfonyl)imide",ABdfIc,CCO,ethanol,AAIsrh,CC[NH+]=C(N(C)C)N(C)C,O=S(=O)([N-]S(=O)(=O)C(F)(F)F)C(F)(F)F,2,,,,709,False,CC[NH+]=C(N(C)C)N(C)C.O=S(=O)([N-]S(=O)(=O)C(F)(F)F)C(F)(F)F,No changes
RwmNg,303.15,100.0,1013.56,Lu et al. (2015),Liquid,0.1006,"2-ethyl-1,1,3,3-tetramethylguanidinium bis(trifluoromethanesulfonyl)imide",,,CC[NH+]=C(N(C)C)N(C)C.O=S(=O)([N-]S(=O)(=O)C(F)(F)F)C(F)(F)F,"2-ethyl-1,1,3,3-tetramethylguanidinium bis(trifluoromethanesulfonyl)imide",ABdfIc,CCO,ethanol,AAIsrh,CC[NH+]=C(N(C)C)N(C)C,O=S(=O)([N-]S(=O)(=O)C(F)(F)F)C(F)(F)F,2,,,,710,False,CC[NH+]=C(N(C)C)N(C)C.O=S(=O)([N-]S(=O)(=O)C(F)(F)F)C(F)(F)F,No changes
RwmNg,303.15,100.0,1138.51,Lu et al. (2015),Liquid,0.2004,"2-ethyl-1,1,3,3-tetramethylguanidinium bis(trifluoromethanesulfonyl)imide",,,CC[NH+]=C(N(C)C)N(C)C.O=S(=O)([N-]S(=O)(=O)C(F)(F)F)C(F)(F)F,"2-ethyl-1,1,3,3-tetramethylguanidinium bis(trifluoromethanesulfonyl)imide",ABdfIc,CCO,ethanol,AAIsrh,CC[NH+]=C(N(C)C)N(C)C,O=S(=O)([N-]S(=O)(=O)C(F)(F)F)C(F)(F)F,2,,,,711,False,CC[NH+]=C(N(C)C)N(C)C.O=S(=O)([N-]S(=O)(=O)C(F)(F)F)C(F)(F)F,No changes