setid,Temperature (K),Pressure (kPa),Density (kg/m3),reference,phases,Mole fraction,Mole fraction of compound name,Weight fraction,Weight fraction of compound name,IL_SMILES,IL_name,IL_ID,Solvent_SMILES,Solvent_name,Solvent_ID,IL_cation_SMILES,IL_anion_SMILES,IL_component_number,Mole fraction of solvent,IL_MW,Solvent_MW,Record_ID,Contains_Metal,Standardized_IL_SMILES,Changes
oqWVb,293.15,101.0,1065.4,Garcia-Miaja et al. (2007),Liquid,0.3847,1-butyl-3-methylpyridinium tetrafluoroborate,,,CCCC[n+]1cccc(C)c1.F[B-](F)(F)F,1-butyl-3-methylpyridinium tetrafluoroborate,AAtejH,CCO,ethanol,AAIsrh,CCCC[n+]1cccc(C)c1,F[B-](F)(F)F,2,,,,2863,False,CCCC[n+]1cccc(C)c1.F[B-](F)(F)F,No changes
oqWVb,293.15,101.0,1097.1,Garcia-Miaja et al. (2007),Liquid,0.4841,1-butyl-3-methylpyridinium tetrafluoroborate,,,CCCC[n+]1cccc(C)c1.F[B-](F)(F)F,1-butyl-3-methylpyridinium tetrafluoroborate,AAtejH,CCO,ethanol,AAIsrh,CCCC[n+]1cccc(C)c1,F[B-](F)(F)F,2,,,,2864,False,CCCC[n+]1cccc(C)c1.F[B-](F)(F)F,No changes
oqWVb,293.15,101.0,1124.9,Garcia-Miaja et al. (2007),Liquid,0.5963,1-butyl-3-methylpyridinium tetrafluoroborate,,,CCCC[n+]1cccc(C)c1.F[B-](F)(F)F,1-butyl-3-methylpyridinium tetrafluoroborate,AAtejH,CCO,ethanol,AAIsrh,CCCC[n+]1cccc(C)c1,F[B-](F)(F)F,2,,,,2865,False,CCCC[n+]1cccc(C)c1.F[B-](F)(F)F,No changes
oqWVb,293.15,101.0,1148.0,Garcia-Miaja et al. (2007),Liquid,0.7107,1-butyl-3-methylpyridinium tetrafluoroborate,,,CCCC[n+]1cccc(C)c1.F[B-](F)(F)F,1-butyl-3-methylpyridinium tetrafluoroborate,AAtejH,CCO,ethanol,AAIsrh,CCCC[n+]1cccc(C)c1,F[B-](F)(F)F,2,,,,2866,False,CCCC[n+]1cccc(C)c1.F[B-](F)(F)F,No changes
oqWVb,293.15,101.0,1162.2,Garcia-Miaja et al. (2007),Liquid,0.7966,1-butyl-3-methylpyridinium tetrafluoroborate,,,CCCC[n+]1cccc(C)c1.F[B-](F)(F)F,1-butyl-3-methylpyridinium tetrafluoroborate,AAtejH,CCO,ethanol,AAIsrh,CCCC[n+]1cccc(C)c1,F[B-](F)(F)F,2,,,,2867,False,CCCC[n+]1cccc(C)c1.F[B-](F)(F)F,No changes
oqWVb,293.15,101.0,1183.1,Garcia-Miaja et al. (2007),Liquid,0.9514,1-butyl-3-methylpyridinium tetrafluoroborate,,,CCCC[n+]1cccc(C)c1.F[B-](F)(F)F,1-butyl-3-methylpyridinium tetrafluoroborate,AAtejH,CCO,ethanol,AAIsrh,CCCC[n+]1cccc(C)c1,F[B-](F)(F)F,2,,,,2868,False,CCCC[n+]1cccc(C)c1.F[B-](F)(F)F,No changes
oqWVb,293.15,101.0,1188.6,Garcia-Miaja et al. (2007),Liquid,1.0,1-butyl-3-methylpyridinium tetrafluoroborate,,,CCCC[n+]1cccc(C)c1.F[B-](F)(F)F,1-butyl-3-methylpyridinium tetrafluoroborate,AAtejH,CCO,ethanol,AAIsrh,CCCC[n+]1cccc(C)c1,F[B-](F)(F)F,2,,,,2869,False,CCCC[n+]1cccc(C)c1.F[B-](F)(F)F,No changes
oqWVb,298.15,101.0,785.3,Garcia-Miaja et al. (2007),Liquid,0.0,1-butyl-3-methylpyridinium tetrafluoroborate,,,CCCC[n+]1cccc(C)c1.F[B-](F)(F)F,1-butyl-3-methylpyridinium tetrafluoroborate,AAtejH,CCO,ethanol,AAIsrh,CCCC[n+]1cccc(C)c1,F[B-](F)(F)F,2,,,,2870,False,CCCC[n+]1cccc(C)c1.F[B-](F)(F)F,No changes
oqWVb,298.15,101.0,796.3,Garcia-Miaja et al. (2007),Liquid,0.0073,1-butyl-3-methylpyridinium tetrafluoroborate,,,CCCC[n+]1cccc(C)c1.F[B-](F)(F)F,1-butyl-3-methylpyridinium tetrafluoroborate,AAtejH,CCO,ethanol,AAIsrh,CCCC[n+]1cccc(C)c1,F[B-](F)(F)F,2,,,,2871,False,CCCC[n+]1cccc(C)c1.F[B-](F)(F)F,No changes
oqWVb,298.15,101.0,803.5,Garcia-Miaja et al. (2007),Liquid,0.0126,1-butyl-3-methylpyridinium tetrafluoroborate,,,CCCC[n+]1cccc(C)c1.F[B-](F)(F)F,1-butyl-3-methylpyridinium tetrafluoroborate,AAtejH,CCO,ethanol,AAIsrh,CCCC[n+]1cccc(C)c1,F[B-](F)(F)F,2,,,,2872,False,CCCC[n+]1cccc(C)c1.F[B-](F)(F)F,No changes
oqWVb,298.15,101.0,817.3,Garcia-Miaja et al. (2007),Liquid,0.0231,1-butyl-3-methylpyridinium tetrafluoroborate,,,CCCC[n+]1cccc(C)c1.F[B-](F)(F)F,1-butyl-3-methylpyridinium tetrafluoroborate,AAtejH,CCO,ethanol,AAIsrh,CCCC[n+]1cccc(C)c1,F[B-](F)(F)F,2,,,,2873,False,CCCC[n+]1cccc(C)c1.F[B-](F)(F)F,No changes
oqWVb,298.15,101.0,851.0,Garcia-Miaja et al. (2007),Liquid,0.0512,1-butyl-3-methylpyridinium tetrafluoroborate,,,CCCC[n+]1cccc(C)c1.F[B-](F)(F)F,1-butyl-3-methylpyridinium tetrafluoroborate,AAtejH,CCO,ethanol,AAIsrh,CCCC[n+]1cccc(C)c1,F[B-](F)(F)F,2,,,,2874,False,CCCC[n+]1cccc(C)c1.F[B-](F)(F)F,No changes
oqWVb,298.15,101.0,900.1,Garcia-Miaja et al. (2007),Liquid,0.1003,1-butyl-3-methylpyridinium tetrafluoroborate,,,CCCC[n+]1cccc(C)c1.F[B-](F)(F)F,1-butyl-3-methylpyridinium tetrafluoroborate,AAtejH,CCO,ethanol,AAIsrh,CCCC[n+]1cccc(C)c1,F[B-](F)(F)F,2,,,,2875,False,CCCC[n+]1cccc(C)c1.F[B-](F)(F)F,No changes
oqWVb,298.15,101.0,1006.4,Garcia-Miaja et al. (2007),Liquid,0.2569,1-butyl-3-methylpyridinium tetrafluoroborate,,,CCCC[n+]1cccc(C)c1.F[B-](F)(F)F,1-butyl-3-methylpyridinium tetrafluoroborate,AAtejH,CCO,ethanol,AAIsrh,CCCC[n+]1cccc(C)c1,F[B-](F)(F)F,2,,,,2876,False,CCCC[n+]1cccc(C)c1.F[B-](F)(F)F,No changes
oqWVb,298.15,101.0,1061.6,Garcia-Miaja et al. (2007),Liquid,0.3847,1-butyl-3-methylpyridinium tetrafluoroborate,,,CCCC[n+]1cccc(C)c1.F[B-](F)(F)F,1-butyl-3-methylpyridinium tetrafluoroborate,AAtejH,CCO,ethanol,AAIsrh,CCCC[n+]1cccc(C)c1,F[B-](F)(F)F,2,,,,2877,False,CCCC[n+]1cccc(C)c1.F[B-](F)(F)F,No changes
oqWVb,298.15,101.0,1093.4,Garcia-Miaja et al. (2007),Liquid,0.4841,1-butyl-3-methylpyridinium tetrafluoroborate,,,CCCC[n+]1cccc(C)c1.F[B-](F)(F)F,1-butyl-3-methylpyridinium tetrafluoroborate,AAtejH,CCO,ethanol,AAIsrh,CCCC[n+]1cccc(C)c1,F[B-](F)(F)F,2,,,,2878,False,CCCC[n+]1cccc(C)c1.F[B-](F)(F)F,No changes
oqWVb,298.15,101.0,1121.3,Garcia-Miaja et al. (2007),Liquid,0.5963,1-butyl-3-methylpyridinium tetrafluoroborate,,,CCCC[n+]1cccc(C)c1.F[B-](F)(F)F,1-butyl-3-methylpyridinium tetrafluoroborate,AAtejH,CCO,ethanol,AAIsrh,CCCC[n+]1cccc(C)c1,F[B-](F)(F)F,2,,,,2879,False,CCCC[n+]1cccc(C)c1.F[B-](F)(F)F,No changes
oqWVb,298.15,101.0,1144.5,Garcia-Miaja et al. (2007),Liquid,0.7107,1-butyl-3-methylpyridinium tetrafluoroborate,,,CCCC[n+]1cccc(C)c1.F[B-](F)(F)F,1-butyl-3-methylpyridinium tetrafluoroborate,AAtejH,CCO,ethanol,AAIsrh,CCCC[n+]1cccc(C)c1,F[B-](F)(F)F,2,,,,2880,False,CCCC[n+]1cccc(C)c1.F[B-](F)(F)F,No changes
oqWVb,298.15,101.0,1158.7,Garcia-Miaja et al. (2007),Liquid,0.7966,1-butyl-3-methylpyridinium tetrafluoroborate,,,CCCC[n+]1cccc(C)c1.F[B-](F)(F)F,1-butyl-3-methylpyridinium tetrafluoroborate,AAtejH,CCO,ethanol,AAIsrh,CCCC[n+]1cccc(C)c1,F[B-](F)(F)F,2,,,,2881,False,CCCC[n+]1cccc(C)c1.F[B-](F)(F)F,No changes
oqWVb,298.15,101.0,1179.6,Garcia-Miaja et al. (2007),Liquid,0.9514,1-butyl-3-methylpyridinium tetrafluoroborate,,,CCCC[n+]1cccc(C)c1.F[B-](F)(F)F,1-butyl-3-methylpyridinium tetrafluoroborate,AAtejH,CCO,ethanol,AAIsrh,CCCC[n+]1cccc(C)c1,F[B-](F)(F)F,2,,,,2882,False,CCCC[n+]1cccc(C)c1.F[B-](F)(F)F,No changes
oqWVb,298.15,101.0,1185.2,Garcia-Miaja et al. (2007),Liquid,1.0,1-butyl-3-methylpyridinium tetrafluoroborate,,,CCCC[n+]1cccc(C)c1.F[B-](F)(F)F,1-butyl-3-methylpyridinium tetrafluoroborate,AAtejH,CCO,ethanol,AAIsrh,CCCC[n+]1cccc(C)c1,F[B-](F)(F)F,2,,,,2883,False,CCCC[n+]1cccc(C)c1.F[B-](F)(F)F,No changes
oqWVb,303.15,101.0,781.0,Garcia-Miaja et al. (2007),Liquid,0.0,1-butyl-3-methylpyridinium tetrafluoroborate,,,CCCC[n+]1cccc(C)c1.F[B-](F)(F)F,1-butyl-3-methylpyridinium tetrafluoroborate,AAtejH,CCO,ethanol,AAIsrh,CCCC[n+]1cccc(C)c1,F[B-](F)(F)F,2,,,,2884,False,CCCC[n+]1cccc(C)c1.F[B-](F)(F)F,No changes
oqWVb,303.15,101.0,792.0,Garcia-Miaja et al. (2007),Liquid,0.0073,1-butyl-3-methylpyridinium tetrafluoroborate,,,CCCC[n+]1cccc(C)c1.F[B-](F)(F)F,1-butyl-3-methylpyridinium tetrafluoroborate,AAtejH,CCO,ethanol,AAIsrh,CCCC[n+]1cccc(C)c1,F[B-](F)(F)F,2,,,,2885,False,CCCC[n+]1cccc(C)c1.F[B-](F)(F)F,No changes
oqWVb,303.15,101.0,799.3,Garcia-Miaja et al. (2007),Liquid,0.0126,1-butyl-3-methylpyridinium tetrafluoroborate,,,CCCC[n+]1cccc(C)c1.F[B-](F)(F)F,1-butyl-3-methylpyridinium tetrafluoroborate,AAtejH,CCO,ethanol,AAIsrh,CCCC[n+]1cccc(C)c1,F[B-](F)(F)F,2,,,,2886,False,CCCC[n+]1cccc(C)c1.F[B-](F)(F)F,No changes
oqWVb,303.15,101.0,813.0,Garcia-Miaja et al. (2007),Liquid,0.0231,1-butyl-3-methylpyridinium tetrafluoroborate,,,CCCC[n+]1cccc(C)c1.F[B-](F)(F)F,1-butyl-3-methylpyridinium tetrafluoroborate,AAtejH,CCO,ethanol,AAIsrh,CCCC[n+]1cccc(C)c1,F[B-](F)(F)F,2,,,,2887,False,CCCC[n+]1cccc(C)c1.F[B-](F)(F)F,No changes
oqWVb,303.15,101.0,846.8,Garcia-Miaja et al. (2007),Liquid,0.0512,1-butyl-3-methylpyridinium tetrafluoroborate,,,CCCC[n+]1cccc(C)c1.F[B-](F)(F)F,1-butyl-3-methylpyridinium tetrafluoroborate,AAtejH,CCO,ethanol,AAIsrh,CCCC[n+]1cccc(C)c1,F[B-](F)(F)F,2,,,,2888,False,CCCC[n+]1cccc(C)c1.F[B-](F)(F)F,No changes
oqWVb,303.15,101.0,896.0,Garcia-Miaja et al. (2007),Liquid,0.1003,1-butyl-3-methylpyridinium tetrafluoroborate,,,CCCC[n+]1cccc(C)c1.F[B-](F)(F)F,1-butyl-3-methylpyridinium tetrafluoroborate,AAtejH,CCO,ethanol,AAIsrh,CCCC[n+]1cccc(C)c1,F[B-](F)(F)F,2,,,,2889,False,CCCC[n+]1cccc(C)c1.F[B-](F)(F)F,No changes
oqWVb,303.15,101.0,1002.6,Garcia-Miaja et al. (2007),Liquid,0.2569,1-butyl-3-methylpyridinium tetrafluoroborate,,,CCCC[n+]1cccc(C)c1.F[B-](F)(F)F,1-butyl-3-methylpyridinium tetrafluoroborate,AAtejH,CCO,ethanol,AAIsrh,CCCC[n+]1cccc(C)c1,F[B-](F)(F)F,2,,,,2890,False,CCCC[n+]1cccc(C)c1.F[B-](F)(F)F,No changes
oqWVb,303.15,101.0,1057.9,Garcia-Miaja et al. (2007),Liquid,0.3847,1-butyl-3-methylpyridinium tetrafluoroborate,,,CCCC[n+]1cccc(C)c1.F[B-](F)(F)F,1-butyl-3-methylpyridinium tetrafluoroborate,AAtejH,CCO,ethanol,AAIsrh,CCCC[n+]1cccc(C)c1,F[B-](F)(F)F,2,,,,2891,False,CCCC[n+]1cccc(C)c1.F[B-](F)(F)F,No changes
oqWVb,303.15,101.0,1089.7,Garcia-Miaja et al. (2007),Liquid,0.4841,1-butyl-3-methylpyridinium tetrafluoroborate,,,CCCC[n+]1cccc(C)c1.F[B-](F)(F)F,1-butyl-3-methylpyridinium tetrafluoroborate,AAtejH,CCO,ethanol,AAIsrh,CCCC[n+]1cccc(C)c1,F[B-](F)(F)F,2,,,,2892,False,CCCC[n+]1cccc(C)c1.F[B-](F)(F)F,No changes
oqWVb,303.15,101.0,1117.7,Garcia-Miaja et al. (2007),Liquid,0.5963,1-butyl-3-methylpyridinium tetrafluoroborate,,,CCCC[n+]1cccc(C)c1.F[B-](F)(F)F,1-butyl-3-methylpyridinium tetrafluoroborate,AAtejH,CCO,ethanol,AAIsrh,CCCC[n+]1cccc(C)c1,F[B-](F)(F)F,2,,,,2893,False,CCCC[n+]1cccc(C)c1.F[B-](F)(F)F,No changes
oqWVb,303.15,101.0,1140.9,Garcia-Miaja et al. (2007),Liquid,0.7107,1-butyl-3-methylpyridinium tetrafluoroborate,,,CCCC[n+]1cccc(C)c1.F[B-](F)(F)F,1-butyl-3-methylpyridinium tetrafluoroborate,AAtejH,CCO,ethanol,AAIsrh,CCCC[n+]1cccc(C)c1,F[B-](F)(F)F,2,,,,2894,False,CCCC[n+]1cccc(C)c1.F[B-](F)(F)F,No changes
oqWVb,303.15,101.0,1155.2,Garcia-Miaja et al. (2007),Liquid,0.7966,1-butyl-3-methylpyridinium tetrafluoroborate,,,CCCC[n+]1cccc(C)c1.F[B-](F)(F)F,1-butyl-3-methylpyridinium tetrafluoroborate,AAtejH,CCO,ethanol,AAIsrh,CCCC[n+]1cccc(C)c1,F[B-](F)(F)F,2,,,,2895,False,CCCC[n+]1cccc(C)c1.F[B-](F)(F)F,No changes
oqWVb,303.15,101.0,1176.2,Garcia-Miaja et al. (2007),Liquid,0.9514,1-butyl-3-methylpyridinium tetrafluoroborate,,,CCCC[n+]1cccc(C)c1.F[B-](F)(F)F,1-butyl-3-methylpyridinium tetrafluoroborate,AAtejH,CCO,ethanol,AAIsrh,CCCC[n+]1cccc(C)c1,F[B-](F)(F)F,2,,,,2896,False,CCCC[n+]1cccc(C)c1.F[B-](F)(F)F,No changes
oqWVb,303.15,101.0,1181.7,Garcia-Miaja et al. (2007),Liquid,1.0,1-butyl-3-methylpyridinium tetrafluoroborate,,,CCCC[n+]1cccc(C)c1.F[B-](F)(F)F,1-butyl-3-methylpyridinium tetrafluoroborate,AAtejH,CCO,ethanol,AAIsrh,CCCC[n+]1cccc(C)c1,F[B-](F)(F)F,2,,,,2897,False,CCCC[n+]1cccc(C)c1.F[B-](F)(F)F,No changes
oqWVb,308.15,101.0,776.7,Garcia-Miaja et al. (2007),Liquid,0.0,1-butyl-3-methylpyridinium tetrafluoroborate,,,CCCC[n+]1cccc(C)c1.F[B-](F)(F)F,1-butyl-3-methylpyridinium tetrafluoroborate,AAtejH,CCO,ethanol,AAIsrh,CCCC[n+]1cccc(C)c1,F[B-](F)(F)F,2,,,,2898,False,CCCC[n+]1cccc(C)c1.F[B-](F)(F)F,No changes
oqWVb,308.15,101.0,787.6,Garcia-Miaja et al. (2007),Liquid,0.0073,1-butyl-3-methylpyridinium tetrafluoroborate,,,CCCC[n+]1cccc(C)c1.F[B-](F)(F)F,1-butyl-3-methylpyridinium tetrafluoroborate,AAtejH,CCO,ethanol,AAIsrh,CCCC[n+]1cccc(C)c1,F[B-](F)(F)F,2,,,,2899,False,CCCC[n+]1cccc(C)c1.F[B-](F)(F)F,No changes
oqWVb,308.15,101.0,794.9,Garcia-Miaja et al. (2007),Liquid,0.0126,1-butyl-3-methylpyridinium tetrafluoroborate,,,CCCC[n+]1cccc(C)c1.F[B-](F)(F)F,1-butyl-3-methylpyridinium tetrafluoroborate,AAtejH,CCO,ethanol,AAIsrh,CCCC[n+]1cccc(C)c1,F[B-](F)(F)F,2,,,,2900,False,CCCC[n+]1cccc(C)c1.F[B-](F)(F)F,No changes
oqWVb,308.15,101.0,808.8,Garcia-Miaja et al. (2007),Liquid,0.0231,1-butyl-3-methylpyridinium tetrafluoroborate,,,CCCC[n+]1cccc(C)c1.F[B-](F)(F)F,1-butyl-3-methylpyridinium tetrafluoroborate,AAtejH,CCO,ethanol,AAIsrh,CCCC[n+]1cccc(C)c1,F[B-](F)(F)F,2,,,,2901,False,CCCC[n+]1cccc(C)c1.F[B-](F)(F)F,No changes
oqWVb,308.15,101.0,842.6,Garcia-Miaja et al. (2007),Liquid,0.0512,1-butyl-3-methylpyridinium tetrafluoroborate,,,CCCC[n+]1cccc(C)c1.F[B-](F)(F)F,1-butyl-3-methylpyridinium tetrafluoroborate,AAtejH,CCO,ethanol,AAIsrh,CCCC[n+]1cccc(C)c1,F[B-](F)(F)F,2,,,,2902,False,CCCC[n+]1cccc(C)c1.F[B-](F)(F)F,No changes
oqWVb,308.15,101.0,891.9,Garcia-Miaja et al. (2007),Liquid,0.1003,1-butyl-3-methylpyridinium tetrafluoroborate,,,CCCC[n+]1cccc(C)c1.F[B-](F)(F)F,1-butyl-3-methylpyridinium tetrafluoroborate,AAtejH,CCO,ethanol,AAIsrh,CCCC[n+]1cccc(C)c1,F[B-](F)(F)F,2,,,,2903,False,CCCC[n+]1cccc(C)c1.F[B-](F)(F)F,No changes
oqWVb,308.15,101.0,998.7,Garcia-Miaja et al. (2007),Liquid,0.2569,1-butyl-3-methylpyridinium tetrafluoroborate,,,CCCC[n+]1cccc(C)c1.F[B-](F)(F)F,1-butyl-3-methylpyridinium tetrafluoroborate,AAtejH,CCO,ethanol,AAIsrh,CCCC[n+]1cccc(C)c1,F[B-](F)(F)F,2,,,,2904,False,CCCC[n+]1cccc(C)c1.F[B-](F)(F)F,No changes
oqWVb,308.15,101.0,1054.2,Garcia-Miaja et al. (2007),Liquid,0.3847,1-butyl-3-methylpyridinium tetrafluoroborate,,,CCCC[n+]1cccc(C)c1.F[B-](F)(F)F,1-butyl-3-methylpyridinium tetrafluoroborate,AAtejH,CCO,ethanol,AAIsrh,CCCC[n+]1cccc(C)c1,F[B-](F)(F)F,2,,,,2905,False,CCCC[n+]1cccc(C)c1.F[B-](F)(F)F,No changes
oqWVb,308.15,101.0,1086.1,Garcia-Miaja et al. (2007),Liquid,0.4841,1-butyl-3-methylpyridinium tetrafluoroborate,,,CCCC[n+]1cccc(C)c1.F[B-](F)(F)F,1-butyl-3-methylpyridinium tetrafluoroborate,AAtejH,CCO,ethanol,AAIsrh,CCCC[n+]1cccc(C)c1,F[B-](F)(F)F,2,,,,2906,False,CCCC[n+]1cccc(C)c1.F[B-](F)(F)F,No changes
oqWVb,308.15,101.0,1114.2,Garcia-Miaja et al. (2007),Liquid,0.5963,1-butyl-3-methylpyridinium tetrafluoroborate,,,CCCC[n+]1cccc(C)c1.F[B-](F)(F)F,1-butyl-3-methylpyridinium tetrafluoroborate,AAtejH,CCO,ethanol,AAIsrh,CCCC[n+]1cccc(C)c1,F[B-](F)(F)F,2,,,,2907,False,CCCC[n+]1cccc(C)c1.F[B-](F)(F)F,No changes
oqWVb,308.15,101.0,1137.4,Garcia-Miaja et al. (2007),Liquid,0.7107,1-butyl-3-methylpyridinium tetrafluoroborate,,,CCCC[n+]1cccc(C)c1.F[B-](F)(F)F,1-butyl-3-methylpyridinium tetrafluoroborate,AAtejH,CCO,ethanol,AAIsrh,CCCC[n+]1cccc(C)c1,F[B-](F)(F)F,2,,,,2908,False,CCCC[n+]1cccc(C)c1.F[B-](F)(F)F,No changes
oqWVb,308.15,101.0,1151.7,Garcia-Miaja et al. (2007),Liquid,0.7966,1-butyl-3-methylpyridinium tetrafluoroborate,,,CCCC[n+]1cccc(C)c1.F[B-](F)(F)F,1-butyl-3-methylpyridinium tetrafluoroborate,AAtejH,CCO,ethanol,AAIsrh,CCCC[n+]1cccc(C)c1,F[B-](F)(F)F,2,,,,2909,False,CCCC[n+]1cccc(C)c1.F[B-](F)(F)F,No changes
oqWVb,308.15,101.0,1172.8,Garcia-Miaja et al. (2007),Liquid,0.9514,1-butyl-3-methylpyridinium tetrafluoroborate,,,CCCC[n+]1cccc(C)c1.F[B-](F)(F)F,1-butyl-3-methylpyridinium tetrafluoroborate,AAtejH,CCO,ethanol,AAIsrh,CCCC[n+]1cccc(C)c1,F[B-](F)(F)F,2,,,,2910,False,CCCC[n+]1cccc(C)c1.F[B-](F)(F)F,No changes
oqWVb,308.15,101.0,1178.3,Garcia-Miaja et al. (2007),Liquid,1.0,1-butyl-3-methylpyridinium tetrafluoroborate,,,CCCC[n+]1cccc(C)c1.F[B-](F)(F)F,1-butyl-3-methylpyridinium tetrafluoroborate,AAtejH,CCO,ethanol,AAIsrh,CCCC[n+]1cccc(C)c1,F[B-](F)(F)F,2,,,,2911,False,CCCC[n+]1cccc(C)c1.F[B-](F)(F)F,No changes
oqWVb,313.15,101.0,772.3,Garcia-Miaja et al. (2007),Liquid,0.0,1-butyl-3-methylpyridinium tetrafluoroborate,,,CCCC[n+]1cccc(C)c1.F[B-](F)(F)F,1-butyl-3-methylpyridinium tetrafluoroborate,AAtejH,CCO,ethanol,AAIsrh,CCCC[n+]1cccc(C)c1,F[B-](F)(F)F,2,,,,2912,False,CCCC[n+]1cccc(C)c1.F[B-](F)(F)F,No changes
oqWVb,313.15,101.0,783.3,Garcia-Miaja et al. (2007),Liquid,0.0073,1-butyl-3-methylpyridinium tetrafluoroborate,,,CCCC[n+]1cccc(C)c1.F[B-](F)(F)F,1-butyl-3-methylpyridinium tetrafluoroborate,AAtejH,CCO,ethanol,AAIsrh,CCCC[n+]1cccc(C)c1,F[B-](F)(F)F,2,,,,2913,False,CCCC[n+]1cccc(C)c1.F[B-](F)(F)F,No changes
oqWVb,313.15,101.0,790.6,Garcia-Miaja et al. (2007),Liquid,0.0126,1-butyl-3-methylpyridinium tetrafluoroborate,,,CCCC[n+]1cccc(C)c1.F[B-](F)(F)F,1-butyl-3-methylpyridinium tetrafluoroborate,AAtejH,CCO,ethanol,AAIsrh,CCCC[n+]1cccc(C)c1,F[B-](F)(F)F,2,,,,2914,False,CCCC[n+]1cccc(C)c1.F[B-](F)(F)F,No changes
oqWVb,313.15,101.0,804.5,Garcia-Miaja et al. (2007),Liquid,0.0231,1-butyl-3-methylpyridinium tetrafluoroborate,,,CCCC[n+]1cccc(C)c1.F[B-](F)(F)F,1-butyl-3-methylpyridinium tetrafluoroborate,AAtejH,CCO,ethanol,AAIsrh,CCCC[n+]1cccc(C)c1,F[B-](F)(F)F,2,,,,2915,False,CCCC[n+]1cccc(C)c1.F[B-](F)(F)F,No changes
oqWVb,313.15,101.0,838.4,Garcia-Miaja et al. (2007),Liquid,0.0512,1-butyl-3-methylpyridinium tetrafluoroborate,,,CCCC[n+]1cccc(C)c1.F[B-](F)(F)F,1-butyl-3-methylpyridinium tetrafluoroborate,AAtejH,CCO,ethanol,AAIsrh,CCCC[n+]1cccc(C)c1,F[B-](F)(F)F,2,,,,2916,False,CCCC[n+]1cccc(C)c1.F[B-](F)(F)F,No changes
oqWVb,313.15,101.0,887.8,Garcia-Miaja et al. (2007),Liquid,0.1003,1-butyl-3-methylpyridinium tetrafluoroborate,,,CCCC[n+]1cccc(C)c1.F[B-](F)(F)F,1-butyl-3-methylpyridinium tetrafluoroborate,AAtejH,CCO,ethanol,AAIsrh,CCCC[n+]1cccc(C)c1,F[B-](F)(F)F,2,,,,2917,False,CCCC[n+]1cccc(C)c1.F[B-](F)(F)F,No changes
oqWVb,313.15,101.0,994.8,Garcia-Miaja et al. (2007),Liquid,0.2569,1-butyl-3-methylpyridinium tetrafluoroborate,,,CCCC[n+]1cccc(C)c1.F[B-](F)(F)F,1-butyl-3-methylpyridinium tetrafluoroborate,AAtejH,CCO,ethanol,AAIsrh,CCCC[n+]1cccc(C)c1,F[B-](F)(F)F,2,,,,2918,False,CCCC[n+]1cccc(C)c1.F[B-](F)(F)F,No changes
oqWVb,313.15,101.0,1050.4,Garcia-Miaja et al. (2007),Liquid,0.3847,1-butyl-3-methylpyridinium tetrafluoroborate,,,CCCC[n+]1cccc(C)c1.F[B-](F)(F)F,1-butyl-3-methylpyridinium tetrafluoroborate,AAtejH,CCO,ethanol,AAIsrh,CCCC[n+]1cccc(C)c1,F[B-](F)(F)F,2,,,,2919,False,CCCC[n+]1cccc(C)c1.F[B-](F)(F)F,No changes
oqWVb,313.15,101.0,1082.4,Garcia-Miaja et al. (2007),Liquid,0.4841,1-butyl-3-methylpyridinium tetrafluoroborate,,,CCCC[n+]1cccc(C)c1.F[B-](F)(F)F,1-butyl-3-methylpyridinium tetrafluoroborate,AAtejH,CCO,ethanol,AAIsrh,CCCC[n+]1cccc(C)c1,F[B-](F)(F)F,2,,,,2920,False,CCCC[n+]1cccc(C)c1.F[B-](F)(F)F,No changes
oqWVb,313.15,101.0,1110.6,Garcia-Miaja et al. (2007),Liquid,0.5963,1-butyl-3-methylpyridinium tetrafluoroborate,,,CCCC[n+]1cccc(C)c1.F[B-](F)(F)F,1-butyl-3-methylpyridinium tetrafluoroborate,AAtejH,CCO,ethanol,AAIsrh,CCCC[n+]1cccc(C)c1,F[B-](F)(F)F,2,,,,2921,False,CCCC[n+]1cccc(C)c1.F[B-](F)(F)F,No changes
oqWVb,313.15,101.0,1133.9,Garcia-Miaja et al. (2007),Liquid,0.7107,1-butyl-3-methylpyridinium tetrafluoroborate,,,CCCC[n+]1cccc(C)c1.F[B-](F)(F)F,1-butyl-3-methylpyridinium tetrafluoroborate,AAtejH,CCO,ethanol,AAIsrh,CCCC[n+]1cccc(C)c1,F[B-](F)(F)F,2,,,,2922,False,CCCC[n+]1cccc(C)c1.F[B-](F)(F)F,No changes
oqWVb,313.15,101.0,1148.3,Garcia-Miaja et al. (2007),Liquid,0.7966,1-butyl-3-methylpyridinium tetrafluoroborate,,,CCCC[n+]1cccc(C)c1.F[B-](F)(F)F,1-butyl-3-methylpyridinium tetrafluoroborate,AAtejH,CCO,ethanol,AAIsrh,CCCC[n+]1cccc(C)c1,F[B-](F)(F)F,2,,,,2923,False,CCCC[n+]1cccc(C)c1.F[B-](F)(F)F,No changes
oqWVb,313.15,101.0,1169.4,Garcia-Miaja et al. (2007),Liquid,0.9514,1-butyl-3-methylpyridinium tetrafluoroborate,,,CCCC[n+]1cccc(C)c1.F[B-](F)(F)F,1-butyl-3-methylpyridinium tetrafluoroborate,AAtejH,CCO,ethanol,AAIsrh,CCCC[n+]1cccc(C)c1,F[B-](F)(F)F,2,,,,2924,False,CCCC[n+]1cccc(C)c1.F[B-](F)(F)F,No changes
oqWVb,313.15,101.0,1174.9,Garcia-Miaja et al. (2007),Liquid,1.0,1-butyl-3-methylpyridinium tetrafluoroborate,,,CCCC[n+]1cccc(C)c1.F[B-](F)(F)F,1-butyl-3-methylpyridinium tetrafluoroborate,AAtejH,CCO,ethanol,AAIsrh,CCCC[n+]1cccc(C)c1,F[B-](F)(F)F,2,,,,2925,False,CCCC[n+]1cccc(C)c1.F[B-](F)(F)F,No changes