setid,Temperature (K),Pressure (kPa),Density (kg/m3),reference,phases,Mole fraction,Mole fraction of compound name,Weight fraction,Weight fraction of compound name,IL_SMILES,IL_name,IL_ID,Solvent_SMILES,Solvent_name,Solvent_ID,IL_cation_SMILES,IL_anion_SMILES,IL_component_number,Mole fraction of solvent,IL_MW,Solvent_MW,Record_ID,Contains_Metal,Standardized_IL_SMILES,Changes
jTciS,308.15,100.0,1280.1,Massel et al. (2015),Liquid,0.4969,ethanol,,,CCCC[N+](C)(C)C.O=S(=O)([N-]S(=O)(=O)C(F)(F)F)C(F)(F)F,butyltrimethylammonium bis(trifluoromethylsulfonyl)imide,ABYLZx,CCO,ethanol,AAIsrh,CCCC[N+](C)(C)C,O=S(=O)([N-]S(=O)(=O)C(F)(F)F)C(F)(F)F,2,0.5031,,,1049,False,CCCC[N+](C)(C)C.O=S(=O)([N-]S(=O)(=O)C(F)(F)F)C(F)(F)F,No changes
jTciS,308.15,100.0,1218.2,Massel et al. (2015),Liquid,0.3512999999999999,ethanol,,,CCCC[N+](C)(C)C.O=S(=O)([N-]S(=O)(=O)C(F)(F)F)C(F)(F)F,butyltrimethylammonium bis(trifluoromethylsulfonyl)imide,ABYLZx,CCO,ethanol,AAIsrh,CCCC[N+](C)(C)C,O=S(=O)([N-]S(=O)(=O)C(F)(F)F)C(F)(F)F,2,0.6487,,,1050,False,CCCC[N+](C)(C)C.O=S(=O)([N-]S(=O)(=O)C(F)(F)F)C(F)(F)F,No changes
jTciS,308.15,100.0,1128.0,Massel et al. (2015),Liquid,0.2177,ethanol,,,CCCC[N+](C)(C)C.O=S(=O)([N-]S(=O)(=O)C(F)(F)F)C(F)(F)F,butyltrimethylammonium bis(trifluoromethylsulfonyl)imide,ABYLZx,CCO,ethanol,AAIsrh,CCCC[N+](C)(C)C,O=S(=O)([N-]S(=O)(=O)C(F)(F)F)C(F)(F)F,2,0.7823,,,1051,False,CCCC[N+](C)(C)C.O=S(=O)([N-]S(=O)(=O)C(F)(F)F)C(F)(F)F,No changes
jTciS,308.15,100.0,1052.4,Massel et al. (2015),Liquid,0.1439,ethanol,,,CCCC[N+](C)(C)C.O=S(=O)([N-]S(=O)(=O)C(F)(F)F)C(F)(F)F,butyltrimethylammonium bis(trifluoromethylsulfonyl)imide,ABYLZx,CCO,ethanol,AAIsrh,CCCC[N+](C)(C)C,O=S(=O)([N-]S(=O)(=O)C(F)(F)F)C(F)(F)F,2,0.8561,,,1052,False,CCCC[N+](C)(C)C.O=S(=O)([N-]S(=O)(=O)C(F)(F)F)C(F)(F)F,No changes
jTciS,308.15,100.0,1026.8,Massel et al. (2015),Liquid,0.1237,ethanol,,,CCCC[N+](C)(C)C.O=S(=O)([N-]S(=O)(=O)C(F)(F)F)C(F)(F)F,butyltrimethylammonium bis(trifluoromethylsulfonyl)imide,ABYLZx,CCO,ethanol,AAIsrh,CCCC[N+](C)(C)C,O=S(=O)([N-]S(=O)(=O)C(F)(F)F)C(F)(F)F,2,0.8763,,,1053,False,CCCC[N+](C)(C)C.O=S(=O)([N-]S(=O)(=O)C(F)(F)F)C(F)(F)F,No changes
jTciS,308.15,100.0,986.4,Massel et al. (2015),Liquid,0.0960999999999999,ethanol,,,CCCC[N+](C)(C)C.O=S(=O)([N-]S(=O)(=O)C(F)(F)F)C(F)(F)F,butyltrimethylammonium bis(trifluoromethylsulfonyl)imide,ABYLZx,CCO,ethanol,AAIsrh,CCCC[N+](C)(C)C,O=S(=O)([N-]S(=O)(=O)C(F)(F)F)C(F)(F)F,2,0.9039,,,1054,False,CCCC[N+](C)(C)C.O=S(=O)([N-]S(=O)(=O)C(F)(F)F)C(F)(F)F,No changes
jTciS,308.15,100.0,902.9,Massel et al. (2015),Liquid,0.05,ethanol,,,CCCC[N+](C)(C)C.O=S(=O)([N-]S(=O)(=O)C(F)(F)F)C(F)(F)F,butyltrimethylammonium bis(trifluoromethylsulfonyl)imide,ABYLZx,CCO,ethanol,AAIsrh,CCCC[N+](C)(C)C,O=S(=O)([N-]S(=O)(=O)C(F)(F)F)C(F)(F)F,2,0.95,,,1055,False,CCCC[N+](C)(C)C.O=S(=O)([N-]S(=O)(=O)C(F)(F)F)C(F)(F)F,No changes
jTciS,308.15,100.0,846.9,Massel et al. (2015),Liquid,0.0254999999999999,ethanol,,,CCCC[N+](C)(C)C.O=S(=O)([N-]S(=O)(=O)C(F)(F)F)C(F)(F)F,butyltrimethylammonium bis(trifluoromethylsulfonyl)imide,ABYLZx,CCO,ethanol,AAIsrh,CCCC[N+](C)(C)C,O=S(=O)([N-]S(=O)(=O)C(F)(F)F)C(F)(F)F,2,0.9745,,,1056,False,CCCC[N+](C)(C)C.O=S(=O)([N-]S(=O)(=O)C(F)(F)F)C(F)(F)F,No changes
jTciS,308.15,100.0,776.7,Massel et al. (2015),Liquid,0.0,ethanol,,,CCCC[N+](C)(C)C.O=S(=O)([N-]S(=O)(=O)C(F)(F)F)C(F)(F)F,butyltrimethylammonium bis(trifluoromethylsulfonyl)imide,ABYLZx,CCO,ethanol,AAIsrh,CCCC[N+](C)(C)C,O=S(=O)([N-]S(=O)(=O)C(F)(F)F)C(F)(F)F,2,1.0,,,1057,False,CCCC[N+](C)(C)C.O=S(=O)([N-]S(=O)(=O)C(F)(F)F)C(F)(F)F,No changes
jTciS,313.15,100.0,1379.6,Massel et al. (2015),Liquid,1.0,ethanol,,,CCCC[N+](C)(C)C.O=S(=O)([N-]S(=O)(=O)C(F)(F)F)C(F)(F)F,butyltrimethylammonium bis(trifluoromethylsulfonyl)imide,ABYLZx,CCO,ethanol,AAIsrh,CCCC[N+](C)(C)C,O=S(=O)([N-]S(=O)(=O)C(F)(F)F)C(F)(F)F,2,0.0,,,1058,False,CCCC[N+](C)(C)C.O=S(=O)([N-]S(=O)(=O)C(F)(F)F)C(F)(F)F,No changes
jTciS,313.15,100.0,1361.8,Massel et al. (2015),Liquid,0.8716,ethanol,,,CCCC[N+](C)(C)C.O=S(=O)([N-]S(=O)(=O)C(F)(F)F)C(F)(F)F,butyltrimethylammonium bis(trifluoromethylsulfonyl)imide,ABYLZx,CCO,ethanol,AAIsrh,CCCC[N+](C)(C)C,O=S(=O)([N-]S(=O)(=O)C(F)(F)F)C(F)(F)F,2,0.1284,,,1059,False,CCCC[N+](C)(C)C.O=S(=O)([N-]S(=O)(=O)C(F)(F)F)C(F)(F)F,No changes
jTciS,313.15,100.0,1339.2,Massel et al. (2015),Liquid,0.7415,ethanol,,,CCCC[N+](C)(C)C.O=S(=O)([N-]S(=O)(=O)C(F)(F)F)C(F)(F)F,butyltrimethylammonium bis(trifluoromethylsulfonyl)imide,ABYLZx,CCO,ethanol,AAIsrh,CCCC[N+](C)(C)C,O=S(=O)([N-]S(=O)(=O)C(F)(F)F)C(F)(F)F,2,0.2585,,,1060,False,CCCC[N+](C)(C)C.O=S(=O)([N-]S(=O)(=O)C(F)(F)F)C(F)(F)F,No changes
jTciS,313.15,100.0,1311.6,Massel et al. (2015),Liquid,0.6186,ethanol,,,CCCC[N+](C)(C)C.O=S(=O)([N-]S(=O)(=O)C(F)(F)F)C(F)(F)F,butyltrimethylammonium bis(trifluoromethylsulfonyl)imide,ABYLZx,CCO,ethanol,AAIsrh,CCCC[N+](C)(C)C,O=S(=O)([N-]S(=O)(=O)C(F)(F)F)C(F)(F)F,2,0.3814,,,1061,False,CCCC[N+](C)(C)C.O=S(=O)([N-]S(=O)(=O)C(F)(F)F)C(F)(F)F,No changes
jTciS,313.15,100.0,1275.6,Massel et al. (2015),Liquid,0.4969,ethanol,,,CCCC[N+](C)(C)C.O=S(=O)([N-]S(=O)(=O)C(F)(F)F)C(F)(F)F,butyltrimethylammonium bis(trifluoromethylsulfonyl)imide,ABYLZx,CCO,ethanol,AAIsrh,CCCC[N+](C)(C)C,O=S(=O)([N-]S(=O)(=O)C(F)(F)F)C(F)(F)F,2,0.5031,,,1062,False,CCCC[N+](C)(C)C.O=S(=O)([N-]S(=O)(=O)C(F)(F)F)C(F)(F)F,No changes
jTciS,313.15,100.0,1213.6,Massel et al. (2015),Liquid,0.3512999999999999,ethanol,,,CCCC[N+](C)(C)C.O=S(=O)([N-]S(=O)(=O)C(F)(F)F)C(F)(F)F,butyltrimethylammonium bis(trifluoromethylsulfonyl)imide,ABYLZx,CCO,ethanol,AAIsrh,CCCC[N+](C)(C)C,O=S(=O)([N-]S(=O)(=O)C(F)(F)F)C(F)(F)F,2,0.6487,,,1063,False,CCCC[N+](C)(C)C.O=S(=O)([N-]S(=O)(=O)C(F)(F)F)C(F)(F)F,No changes
jTciS,313.15,100.0,1123.3,Massel et al. (2015),Liquid,0.2177,ethanol,,,CCCC[N+](C)(C)C.O=S(=O)([N-]S(=O)(=O)C(F)(F)F)C(F)(F)F,butyltrimethylammonium bis(trifluoromethylsulfonyl)imide,ABYLZx,CCO,ethanol,AAIsrh,CCCC[N+](C)(C)C,O=S(=O)([N-]S(=O)(=O)C(F)(F)F)C(F)(F)F,2,0.7823,,,1064,False,CCCC[N+](C)(C)C.O=S(=O)([N-]S(=O)(=O)C(F)(F)F)C(F)(F)F,No changes
jTciS,313.15,100.0,1047.8,Massel et al. (2015),Liquid,0.1439,ethanol,,,CCCC[N+](C)(C)C.O=S(=O)([N-]S(=O)(=O)C(F)(F)F)C(F)(F)F,butyltrimethylammonium bis(trifluoromethylsulfonyl)imide,ABYLZx,CCO,ethanol,AAIsrh,CCCC[N+](C)(C)C,O=S(=O)([N-]S(=O)(=O)C(F)(F)F)C(F)(F)F,2,0.8561,,,1065,False,CCCC[N+](C)(C)C.O=S(=O)([N-]S(=O)(=O)C(F)(F)F)C(F)(F)F,No changes
jTciS,313.15,100.0,1022.1,Massel et al. (2015),Liquid,0.1237,ethanol,,,CCCC[N+](C)(C)C.O=S(=O)([N-]S(=O)(=O)C(F)(F)F)C(F)(F)F,butyltrimethylammonium bis(trifluoromethylsulfonyl)imide,ABYLZx,CCO,ethanol,AAIsrh,CCCC[N+](C)(C)C,O=S(=O)([N-]S(=O)(=O)C(F)(F)F)C(F)(F)F,2,0.8763,,,1066,False,CCCC[N+](C)(C)C.O=S(=O)([N-]S(=O)(=O)C(F)(F)F)C(F)(F)F,No changes
jTciS,313.15,100.0,981.8,Massel et al. (2015),Liquid,0.0960999999999999,ethanol,,,CCCC[N+](C)(C)C.O=S(=O)([N-]S(=O)(=O)C(F)(F)F)C(F)(F)F,butyltrimethylammonium bis(trifluoromethylsulfonyl)imide,ABYLZx,CCO,ethanol,AAIsrh,CCCC[N+](C)(C)C,O=S(=O)([N-]S(=O)(=O)C(F)(F)F)C(F)(F)F,2,0.9039,,,1067,False,CCCC[N+](C)(C)C.O=S(=O)([N-]S(=O)(=O)C(F)(F)F)C(F)(F)F,No changes
jTciS,313.15,100.0,898.4,Massel et al. (2015),Liquid,0.05,ethanol,,,CCCC[N+](C)(C)C.O=S(=O)([N-]S(=O)(=O)C(F)(F)F)C(F)(F)F,butyltrimethylammonium bis(trifluoromethylsulfonyl)imide,ABYLZx,CCO,ethanol,AAIsrh,CCCC[N+](C)(C)C,O=S(=O)([N-]S(=O)(=O)C(F)(F)F)C(F)(F)F,2,0.95,,,1068,False,CCCC[N+](C)(C)C.O=S(=O)([N-]S(=O)(=O)C(F)(F)F)C(F)(F)F,No changes
jTciS,313.15,100.0,842.5,Massel et al. (2015),Liquid,0.0254999999999999,ethanol,,,CCCC[N+](C)(C)C.O=S(=O)([N-]S(=O)(=O)C(F)(F)F)C(F)(F)F,butyltrimethylammonium bis(trifluoromethylsulfonyl)imide,ABYLZx,CCO,ethanol,AAIsrh,CCCC[N+](C)(C)C,O=S(=O)([N-]S(=O)(=O)C(F)(F)F)C(F)(F)F,2,0.9745,,,1069,False,CCCC[N+](C)(C)C.O=S(=O)([N-]S(=O)(=O)C(F)(F)F)C(F)(F)F,No changes
jTciS,313.15,100.0,772.3,Massel et al. (2015),Liquid,0.0,ethanol,,,CCCC[N+](C)(C)C.O=S(=O)([N-]S(=O)(=O)C(F)(F)F)C(F)(F)F,butyltrimethylammonium bis(trifluoromethylsulfonyl)imide,ABYLZx,CCO,ethanol,AAIsrh,CCCC[N+](C)(C)C,O=S(=O)([N-]S(=O)(=O)C(F)(F)F)C(F)(F)F,2,1.0,,,1070,False,CCCC[N+](C)(C)C.O=S(=O)([N-]S(=O)(=O)C(F)(F)F)C(F)(F)F,No changes
jTciS,318.15,100.0,1375.2,Massel et al. (2015),Liquid,1.0,ethanol,,,CCCC[N+](C)(C)C.O=S(=O)([N-]S(=O)(=O)C(F)(F)F)C(F)(F)F,butyltrimethylammonium bis(trifluoromethylsulfonyl)imide,ABYLZx,CCO,ethanol,AAIsrh,CCCC[N+](C)(C)C,O=S(=O)([N-]S(=O)(=O)C(F)(F)F)C(F)(F)F,2,0.0,,,1071,False,CCCC[N+](C)(C)C.O=S(=O)([N-]S(=O)(=O)C(F)(F)F)C(F)(F)F,No changes
jTciS,318.15,100.0,1357.4,Massel et al. (2015),Liquid,0.8716,ethanol,,,CCCC[N+](C)(C)C.O=S(=O)([N-]S(=O)(=O)C(F)(F)F)C(F)(F)F,butyltrimethylammonium bis(trifluoromethylsulfonyl)imide,ABYLZx,CCO,ethanol,AAIsrh,CCCC[N+](C)(C)C,O=S(=O)([N-]S(=O)(=O)C(F)(F)F)C(F)(F)F,2,0.1284,,,1072,False,CCCC[N+](C)(C)C.O=S(=O)([N-]S(=O)(=O)C(F)(F)F)C(F)(F)F,No changes
jTciS,318.15,100.0,1334.8,Massel et al. (2015),Liquid,0.7415,ethanol,,,CCCC[N+](C)(C)C.O=S(=O)([N-]S(=O)(=O)C(F)(F)F)C(F)(F)F,butyltrimethylammonium bis(trifluoromethylsulfonyl)imide,ABYLZx,CCO,ethanol,AAIsrh,CCCC[N+](C)(C)C,O=S(=O)([N-]S(=O)(=O)C(F)(F)F)C(F)(F)F,2,0.2585,,,1073,False,CCCC[N+](C)(C)C.O=S(=O)([N-]S(=O)(=O)C(F)(F)F)C(F)(F)F,No changes
jTciS,318.15,100.0,1307.1,Massel et al. (2015),Liquid,0.6186,ethanol,,,CCCC[N+](C)(C)C.O=S(=O)([N-]S(=O)(=O)C(F)(F)F)C(F)(F)F,butyltrimethylammonium bis(trifluoromethylsulfonyl)imide,ABYLZx,CCO,ethanol,AAIsrh,CCCC[N+](C)(C)C,O=S(=O)([N-]S(=O)(=O)C(F)(F)F)C(F)(F)F,2,0.3814,,,1074,False,CCCC[N+](C)(C)C.O=S(=O)([N-]S(=O)(=O)C(F)(F)F)C(F)(F)F,No changes
jTciS,318.15,100.0,1271.0,Massel et al. (2015),Liquid,0.4969,ethanol,,,CCCC[N+](C)(C)C.O=S(=O)([N-]S(=O)(=O)C(F)(F)F)C(F)(F)F,butyltrimethylammonium bis(trifluoromethylsulfonyl)imide,ABYLZx,CCO,ethanol,AAIsrh,CCCC[N+](C)(C)C,O=S(=O)([N-]S(=O)(=O)C(F)(F)F)C(F)(F)F,2,0.5031,,,1075,False,CCCC[N+](C)(C)C.O=S(=O)([N-]S(=O)(=O)C(F)(F)F)C(F)(F)F,No changes
jTciS,318.15,100.0,1209.0,Massel et al. (2015),Liquid,0.3512999999999999,ethanol,,,CCCC[N+](C)(C)C.O=S(=O)([N-]S(=O)(=O)C(F)(F)F)C(F)(F)F,butyltrimethylammonium bis(trifluoromethylsulfonyl)imide,ABYLZx,CCO,ethanol,AAIsrh,CCCC[N+](C)(C)C,O=S(=O)([N-]S(=O)(=O)C(F)(F)F)C(F)(F)F,2,0.6487,,,1076,False,CCCC[N+](C)(C)C.O=S(=O)([N-]S(=O)(=O)C(F)(F)F)C(F)(F)F,No changes
jTciS,318.15,100.0,1118.6,Massel et al. (2015),Liquid,0.2177,ethanol,,,CCCC[N+](C)(C)C.O=S(=O)([N-]S(=O)(=O)C(F)(F)F)C(F)(F)F,butyltrimethylammonium bis(trifluoromethylsulfonyl)imide,ABYLZx,CCO,ethanol,AAIsrh,CCCC[N+](C)(C)C,O=S(=O)([N-]S(=O)(=O)C(F)(F)F)C(F)(F)F,2,0.7823,,,1077,False,CCCC[N+](C)(C)C.O=S(=O)([N-]S(=O)(=O)C(F)(F)F)C(F)(F)F,No changes
jTciS,318.15,100.0,1043.1,Massel et al. (2015),Liquid,0.1439,ethanol,,,CCCC[N+](C)(C)C.O=S(=O)([N-]S(=O)(=O)C(F)(F)F)C(F)(F)F,butyltrimethylammonium bis(trifluoromethylsulfonyl)imide,ABYLZx,CCO,ethanol,AAIsrh,CCCC[N+](C)(C)C,O=S(=O)([N-]S(=O)(=O)C(F)(F)F)C(F)(F)F,2,0.8561,,,1078,False,CCCC[N+](C)(C)C.O=S(=O)([N-]S(=O)(=O)C(F)(F)F)C(F)(F)F,No changes
jTciS,318.15,100.0,1017.4,Massel et al. (2015),Liquid,0.1237,ethanol,,,CCCC[N+](C)(C)C.O=S(=O)([N-]S(=O)(=O)C(F)(F)F)C(F)(F)F,butyltrimethylammonium bis(trifluoromethylsulfonyl)imide,ABYLZx,CCO,ethanol,AAIsrh,CCCC[N+](C)(C)C,O=S(=O)([N-]S(=O)(=O)C(F)(F)F)C(F)(F)F,2,0.8763,,,1079,False,CCCC[N+](C)(C)C.O=S(=O)([N-]S(=O)(=O)C(F)(F)F)C(F)(F)F,No changes
jTciS,318.15,100.0,977.1,Massel et al. (2015),Liquid,0.0960999999999999,ethanol,,,CCCC[N+](C)(C)C.O=S(=O)([N-]S(=O)(=O)C(F)(F)F)C(F)(F)F,butyltrimethylammonium bis(trifluoromethylsulfonyl)imide,ABYLZx,CCO,ethanol,AAIsrh,CCCC[N+](C)(C)C,O=S(=O)([N-]S(=O)(=O)C(F)(F)F)C(F)(F)F,2,0.9039,,,1080,False,CCCC[N+](C)(C)C.O=S(=O)([N-]S(=O)(=O)C(F)(F)F)C(F)(F)F,No changes
jTciS,318.15,100.0,893.8,Massel et al. (2015),Liquid,0.05,ethanol,,,CCCC[N+](C)(C)C.O=S(=O)([N-]S(=O)(=O)C(F)(F)F)C(F)(F)F,butyltrimethylammonium bis(trifluoromethylsulfonyl)imide,ABYLZx,CCO,ethanol,AAIsrh,CCCC[N+](C)(C)C,O=S(=O)([N-]S(=O)(=O)C(F)(F)F)C(F)(F)F,2,0.95,,,1081,False,CCCC[N+](C)(C)C.O=S(=O)([N-]S(=O)(=O)C(F)(F)F)C(F)(F)F,No changes
jTciS,318.15,100.0,838.0,Massel et al. (2015),Liquid,0.0254999999999999,ethanol,,,CCCC[N+](C)(C)C.O=S(=O)([N-]S(=O)(=O)C(F)(F)F)C(F)(F)F,butyltrimethylammonium bis(trifluoromethylsulfonyl)imide,ABYLZx,CCO,ethanol,AAIsrh,CCCC[N+](C)(C)C,O=S(=O)([N-]S(=O)(=O)C(F)(F)F)C(F)(F)F,2,0.9745,,,1082,False,CCCC[N+](C)(C)C.O=S(=O)([N-]S(=O)(=O)C(F)(F)F)C(F)(F)F,No changes
jTciS,318.15,100.0,767.9,Massel et al. (2015),Liquid,0.0,ethanol,,,CCCC[N+](C)(C)C.O=S(=O)([N-]S(=O)(=O)C(F)(F)F)C(F)(F)F,butyltrimethylammonium bis(trifluoromethylsulfonyl)imide,ABYLZx,CCO,ethanol,AAIsrh,CCCC[N+](C)(C)C,O=S(=O)([N-]S(=O)(=O)C(F)(F)F)C(F)(F)F,2,1.0,,,1083,False,CCCC[N+](C)(C)C.O=S(=O)([N-]S(=O)(=O)C(F)(F)F)C(F)(F)F,No changes
jTciS,323.15,100.0,1370.9,Massel et al. (2015),Liquid,1.0,ethanol,,,CCCC[N+](C)(C)C.O=S(=O)([N-]S(=O)(=O)C(F)(F)F)C(F)(F)F,butyltrimethylammonium bis(trifluoromethylsulfonyl)imide,ABYLZx,CCO,ethanol,AAIsrh,CCCC[N+](C)(C)C,O=S(=O)([N-]S(=O)(=O)C(F)(F)F)C(F)(F)F,2,0.0,,,1084,False,CCCC[N+](C)(C)C.O=S(=O)([N-]S(=O)(=O)C(F)(F)F)C(F)(F)F,No changes
jTciS,323.15,100.0,1353.1,Massel et al. (2015),Liquid,0.8716,ethanol,,,CCCC[N+](C)(C)C.O=S(=O)([N-]S(=O)(=O)C(F)(F)F)C(F)(F)F,butyltrimethylammonium bis(trifluoromethylsulfonyl)imide,ABYLZx,CCO,ethanol,AAIsrh,CCCC[N+](C)(C)C,O=S(=O)([N-]S(=O)(=O)C(F)(F)F)C(F)(F)F,2,0.1284,,,1085,False,CCCC[N+](C)(C)C.O=S(=O)([N-]S(=O)(=O)C(F)(F)F)C(F)(F)F,No changes
jTciS,323.15,100.0,1330.4,Massel et al. (2015),Liquid,0.7415,ethanol,,,CCCC[N+](C)(C)C.O=S(=O)([N-]S(=O)(=O)C(F)(F)F)C(F)(F)F,butyltrimethylammonium bis(trifluoromethylsulfonyl)imide,ABYLZx,CCO,ethanol,AAIsrh,CCCC[N+](C)(C)C,O=S(=O)([N-]S(=O)(=O)C(F)(F)F)C(F)(F)F,2,0.2585,,,1086,False,CCCC[N+](C)(C)C.O=S(=O)([N-]S(=O)(=O)C(F)(F)F)C(F)(F)F,No changes
jTciS,323.15,100.0,1302.6,Massel et al. (2015),Liquid,0.6186,ethanol,,,CCCC[N+](C)(C)C.O=S(=O)([N-]S(=O)(=O)C(F)(F)F)C(F)(F)F,butyltrimethylammonium bis(trifluoromethylsulfonyl)imide,ABYLZx,CCO,ethanol,AAIsrh,CCCC[N+](C)(C)C,O=S(=O)([N-]S(=O)(=O)C(F)(F)F)C(F)(F)F,2,0.3814,,,1087,False,CCCC[N+](C)(C)C.O=S(=O)([N-]S(=O)(=O)C(F)(F)F)C(F)(F)F,No changes
jTciS,323.15,100.0,1266.5,Massel et al. (2015),Liquid,0.4969,ethanol,,,CCCC[N+](C)(C)C.O=S(=O)([N-]S(=O)(=O)C(F)(F)F)C(F)(F)F,butyltrimethylammonium bis(trifluoromethylsulfonyl)imide,ABYLZx,CCO,ethanol,AAIsrh,CCCC[N+](C)(C)C,O=S(=O)([N-]S(=O)(=O)C(F)(F)F)C(F)(F)F,2,0.5031,,,1088,False,CCCC[N+](C)(C)C.O=S(=O)([N-]S(=O)(=O)C(F)(F)F)C(F)(F)F,No changes
jTciS,323.15,100.0,1204.4,Massel et al. (2015),Liquid,0.3512999999999999,ethanol,,,CCCC[N+](C)(C)C.O=S(=O)([N-]S(=O)(=O)C(F)(F)F)C(F)(F)F,butyltrimethylammonium bis(trifluoromethylsulfonyl)imide,ABYLZx,CCO,ethanol,AAIsrh,CCCC[N+](C)(C)C,O=S(=O)([N-]S(=O)(=O)C(F)(F)F)C(F)(F)F,2,0.6487,,,1089,False,CCCC[N+](C)(C)C.O=S(=O)([N-]S(=O)(=O)C(F)(F)F)C(F)(F)F,No changes
jTciS,323.15,100.0,1114.0,Massel et al. (2015),Liquid,0.2177,ethanol,,,CCCC[N+](C)(C)C.O=S(=O)([N-]S(=O)(=O)C(F)(F)F)C(F)(F)F,butyltrimethylammonium bis(trifluoromethylsulfonyl)imide,ABYLZx,CCO,ethanol,AAIsrh,CCCC[N+](C)(C)C,O=S(=O)([N-]S(=O)(=O)C(F)(F)F)C(F)(F)F,2,0.7823,,,1090,False,CCCC[N+](C)(C)C.O=S(=O)([N-]S(=O)(=O)C(F)(F)F)C(F)(F)F,No changes
jTciS,323.15,100.0,1038.4,Massel et al. (2015),Liquid,0.1439,ethanol,,,CCCC[N+](C)(C)C.O=S(=O)([N-]S(=O)(=O)C(F)(F)F)C(F)(F)F,butyltrimethylammonium bis(trifluoromethylsulfonyl)imide,ABYLZx,CCO,ethanol,AAIsrh,CCCC[N+](C)(C)C,O=S(=O)([N-]S(=O)(=O)C(F)(F)F)C(F)(F)F,2,0.8561,,,1091,False,CCCC[N+](C)(C)C.O=S(=O)([N-]S(=O)(=O)C(F)(F)F)C(F)(F)F,No changes
jTciS,323.15,100.0,1012.7,Massel et al. (2015),Liquid,0.1237,ethanol,,,CCCC[N+](C)(C)C.O=S(=O)([N-]S(=O)(=O)C(F)(F)F)C(F)(F)F,butyltrimethylammonium bis(trifluoromethylsulfonyl)imide,ABYLZx,CCO,ethanol,AAIsrh,CCCC[N+](C)(C)C,O=S(=O)([N-]S(=O)(=O)C(F)(F)F)C(F)(F)F,2,0.8763,,,1092,False,CCCC[N+](C)(C)C.O=S(=O)([N-]S(=O)(=O)C(F)(F)F)C(F)(F)F,No changes
jTciS,323.15,100.0,972.4,Massel et al. (2015),Liquid,0.0960999999999999,ethanol,,,CCCC[N+](C)(C)C.O=S(=O)([N-]S(=O)(=O)C(F)(F)F)C(F)(F)F,butyltrimethylammonium bis(trifluoromethylsulfonyl)imide,ABYLZx,CCO,ethanol,AAIsrh,CCCC[N+](C)(C)C,O=S(=O)([N-]S(=O)(=O)C(F)(F)F)C(F)(F)F,2,0.9039,,,1093,False,CCCC[N+](C)(C)C.O=S(=O)([N-]S(=O)(=O)C(F)(F)F)C(F)(F)F,No changes
jTciS,323.15,100.0,889.2,Massel et al. (2015),Liquid,0.05,ethanol,,,CCCC[N+](C)(C)C.O=S(=O)([N-]S(=O)(=O)C(F)(F)F)C(F)(F)F,butyltrimethylammonium bis(trifluoromethylsulfonyl)imide,ABYLZx,CCO,ethanol,AAIsrh,CCCC[N+](C)(C)C,O=S(=O)([N-]S(=O)(=O)C(F)(F)F)C(F)(F)F,2,0.95,,,1094,False,CCCC[N+](C)(C)C.O=S(=O)([N-]S(=O)(=O)C(F)(F)F)C(F)(F)F,No changes
jTciS,323.15,100.0,833.4,Massel et al. (2015),Liquid,0.0254999999999999,ethanol,,,CCCC[N+](C)(C)C.O=S(=O)([N-]S(=O)(=O)C(F)(F)F)C(F)(F)F,butyltrimethylammonium bis(trifluoromethylsulfonyl)imide,ABYLZx,CCO,ethanol,AAIsrh,CCCC[N+](C)(C)C,O=S(=O)([N-]S(=O)(=O)C(F)(F)F)C(F)(F)F,2,0.9745,,,1095,False,CCCC[N+](C)(C)C.O=S(=O)([N-]S(=O)(=O)C(F)(F)F)C(F)(F)F,No changes
jTciS,323.15,100.0,763.5,Massel et al. (2015),Liquid,0.0,ethanol,,,CCCC[N+](C)(C)C.O=S(=O)([N-]S(=O)(=O)C(F)(F)F)C(F)(F)F,butyltrimethylammonium bis(trifluoromethylsulfonyl)imide,ABYLZx,CCO,ethanol,AAIsrh,CCCC[N+](C)(C)C,O=S(=O)([N-]S(=O)(=O)C(F)(F)F)C(F)(F)F,2,1.0,,,1096,False,CCCC[N+](C)(C)C.O=S(=O)([N-]S(=O)(=O)C(F)(F)F)C(F)(F)F,No changes
jTciS,328.15,100.0,1366.6,Massel et al. (2015),Liquid,1.0,ethanol,,,CCCC[N+](C)(C)C.O=S(=O)([N-]S(=O)(=O)C(F)(F)F)C(F)(F)F,butyltrimethylammonium bis(trifluoromethylsulfonyl)imide,ABYLZx,CCO,ethanol,AAIsrh,CCCC[N+](C)(C)C,O=S(=O)([N-]S(=O)(=O)C(F)(F)F)C(F)(F)F,2,0.0,,,1097,False,CCCC[N+](C)(C)C.O=S(=O)([N-]S(=O)(=O)C(F)(F)F)C(F)(F)F,No changes
jTciS,328.15,100.0,1348.7,Massel et al. (2015),Liquid,0.8716,ethanol,,,CCCC[N+](C)(C)C.O=S(=O)([N-]S(=O)(=O)C(F)(F)F)C(F)(F)F,butyltrimethylammonium bis(trifluoromethylsulfonyl)imide,ABYLZx,CCO,ethanol,AAIsrh,CCCC[N+](C)(C)C,O=S(=O)([N-]S(=O)(=O)C(F)(F)F)C(F)(F)F,2,0.1284,,,1098,False,CCCC[N+](C)(C)C.O=S(=O)([N-]S(=O)(=O)C(F)(F)F)C(F)(F)F,No changes
jTciS,328.15,100.0,1325.9,Massel et al. (2015),Liquid,0.7415,ethanol,,,CCCC[N+](C)(C)C.O=S(=O)([N-]S(=O)(=O)C(F)(F)F)C(F)(F)F,butyltrimethylammonium bis(trifluoromethylsulfonyl)imide,ABYLZx,CCO,ethanol,AAIsrh,CCCC[N+](C)(C)C,O=S(=O)([N-]S(=O)(=O)C(F)(F)F)C(F)(F)F,2,0.2585,,,1099,False,CCCC[N+](C)(C)C.O=S(=O)([N-]S(=O)(=O)C(F)(F)F)C(F)(F)F,No changes
jTciS,328.15,100.0,1298.1,Massel et al. (2015),Liquid,0.6186,ethanol,,,CCCC[N+](C)(C)C.O=S(=O)([N-]S(=O)(=O)C(F)(F)F)C(F)(F)F,butyltrimethylammonium bis(trifluoromethylsulfonyl)imide,ABYLZx,CCO,ethanol,AAIsrh,CCCC[N+](C)(C)C,O=S(=O)([N-]S(=O)(=O)C(F)(F)F)C(F)(F)F,2,0.3814,,,1100,False,CCCC[N+](C)(C)C.O=S(=O)([N-]S(=O)(=O)C(F)(F)F)C(F)(F)F,No changes
jTciS,328.15,100.0,1261.9,Massel et al. (2015),Liquid,0.4969,ethanol,,,CCCC[N+](C)(C)C.O=S(=O)([N-]S(=O)(=O)C(F)(F)F)C(F)(F)F,butyltrimethylammonium bis(trifluoromethylsulfonyl)imide,ABYLZx,CCO,ethanol,AAIsrh,CCCC[N+](C)(C)C,O=S(=O)([N-]S(=O)(=O)C(F)(F)F)C(F)(F)F,2,0.5031,,,1101,False,CCCC[N+](C)(C)C.O=S(=O)([N-]S(=O)(=O)C(F)(F)F)C(F)(F)F,No changes
jTciS,328.15,100.0,1199.7,Massel et al. (2015),Liquid,0.3512999999999999,ethanol,,,CCCC[N+](C)(C)C.O=S(=O)([N-]S(=O)(=O)C(F)(F)F)C(F)(F)F,butyltrimethylammonium bis(trifluoromethylsulfonyl)imide,ABYLZx,CCO,ethanol,AAIsrh,CCCC[N+](C)(C)C,O=S(=O)([N-]S(=O)(=O)C(F)(F)F)C(F)(F)F,2,0.6487,,,1102,False,CCCC[N+](C)(C)C.O=S(=O)([N-]S(=O)(=O)C(F)(F)F)C(F)(F)F,No changes
jTciS,328.15,100.0,1109.2,Massel et al. (2015),Liquid,0.2177,ethanol,,,CCCC[N+](C)(C)C.O=S(=O)([N-]S(=O)(=O)C(F)(F)F)C(F)(F)F,butyltrimethylammonium bis(trifluoromethylsulfonyl)imide,ABYLZx,CCO,ethanol,AAIsrh,CCCC[N+](C)(C)C,O=S(=O)([N-]S(=O)(=O)C(F)(F)F)C(F)(F)F,2,0.7823,,,1103,False,CCCC[N+](C)(C)C.O=S(=O)([N-]S(=O)(=O)C(F)(F)F)C(F)(F)F,No changes