setid,Temperature (K),Pressure (kPa),Density (kg/m3),reference,phases,Mole fraction,Mole fraction of compound name,Weight fraction,Weight fraction of compound name,IL_SMILES,IL_name,IL_ID,Solvent_SMILES,Solvent_name,Solvent_ID,IL_cation_SMILES,IL_anion_SMILES,IL_component_number,Mole fraction of solvent,IL_MW,Solvent_MW,Record_ID,Contains_Metal,Standardized_IL_SMILES,Changes
ffwvd,293.15,101.0,1283.76,Lladosa et al. (2021),Liquid,1.0,1-ethyl-3-methylimidazolium methyl sulfate,,,CC[n+]1ccn(C)c1.COS(=O)(=O)[O-],1-ethyl-3-methylimidazolium methyl sulfate,AAqmVN,CCO,ethanol,AAIsrh,CC[n+]1ccn(C)c1,COS(=O)(=O)[O-],2,,,,1348,False,CC[n+]1ccn(C)c1.COS(=O)(=O)[O-],No changes
ffwvd,303.15,101.0,780.85,Lladosa et al. (2021),Liquid,0.0,1-ethyl-3-methylimidazolium methyl sulfate,,,CC[n+]1ccn(C)c1.COS(=O)(=O)[O-],1-ethyl-3-methylimidazolium methyl sulfate,AAqmVN,CCO,ethanol,AAIsrh,CC[n+]1ccn(C)c1,COS(=O)(=O)[O-],2,,,,1349,False,CC[n+]1ccn(C)c1.COS(=O)(=O)[O-],No changes
ffwvd,303.15,101.0,861.41,Lladosa et al. (2021),Liquid,0.0561,1-ethyl-3-methylimidazolium methyl sulfate,,,CC[n+]1ccn(C)c1.COS(=O)(=O)[O-],1-ethyl-3-methylimidazolium methyl sulfate,AAqmVN,CCO,ethanol,AAIsrh,CC[n+]1ccn(C)c1,COS(=O)(=O)[O-],2,,,,1350,False,CC[n+]1ccn(C)c1.COS(=O)(=O)[O-],No changes
ffwvd,303.15,101.0,924.52,Lladosa et al. (2021),Liquid,0.112,1-ethyl-3-methylimidazolium methyl sulfate,,,CC[n+]1ccn(C)c1.COS(=O)(=O)[O-],1-ethyl-3-methylimidazolium methyl sulfate,AAqmVN,CCO,ethanol,AAIsrh,CC[n+]1ccn(C)c1,COS(=O)(=O)[O-],2,,,,1351,False,CC[n+]1ccn(C)c1.COS(=O)(=O)[O-],No changes
ffwvd,303.15,101.0,1014.93,Lladosa et al. (2021),Liquid,0.213,1-ethyl-3-methylimidazolium methyl sulfate,,,CC[n+]1ccn(C)c1.COS(=O)(=O)[O-],1-ethyl-3-methylimidazolium methyl sulfate,AAqmVN,CCO,ethanol,AAIsrh,CC[n+]1ccn(C)c1,COS(=O)(=O)[O-],2,,,,1352,False,CC[n+]1ccn(C)c1.COS(=O)(=O)[O-],No changes
ffwvd,303.15,101.0,1087.75,Lladosa et al. (2021),Liquid,0.3285,1-ethyl-3-methylimidazolium methyl sulfate,,,CC[n+]1ccn(C)c1.COS(=O)(=O)[O-],1-ethyl-3-methylimidazolium methyl sulfate,AAqmVN,CCO,ethanol,AAIsrh,CC[n+]1ccn(C)c1,COS(=O)(=O)[O-],2,,,,1353,False,CC[n+]1ccn(C)c1.COS(=O)(=O)[O-],No changes
ffwvd,303.15,101.0,1101.71,Lladosa et al. (2021),Liquid,0.356,1-ethyl-3-methylimidazolium methyl sulfate,,,CC[n+]1ccn(C)c1.COS(=O)(=O)[O-],1-ethyl-3-methylimidazolium methyl sulfate,AAqmVN,CCO,ethanol,AAIsrh,CC[n+]1ccn(C)c1,COS(=O)(=O)[O-],2,,,,1354,False,CC[n+]1ccn(C)c1.COS(=O)(=O)[O-],No changes
ffwvd,303.15,101.0,1171.71,Lladosa et al. (2021),Liquid,0.525,1-ethyl-3-methylimidazolium methyl sulfate,,,CC[n+]1ccn(C)c1.COS(=O)(=O)[O-],1-ethyl-3-methylimidazolium methyl sulfate,AAqmVN,CCO,ethanol,AAIsrh,CC[n+]1ccn(C)c1,COS(=O)(=O)[O-],2,,,,1355,False,CC[n+]1ccn(C)c1.COS(=O)(=O)[O-],No changes
ffwvd,303.15,101.0,1202.41,Lladosa et al. (2021),Liquid,0.632,1-ethyl-3-methylimidazolium methyl sulfate,,,CC[n+]1ccn(C)c1.COS(=O)(=O)[O-],1-ethyl-3-methylimidazolium methyl sulfate,AAqmVN,CCO,ethanol,AAIsrh,CC[n+]1ccn(C)c1,COS(=O)(=O)[O-],2,,,,1356,False,CC[n+]1ccn(C)c1.COS(=O)(=O)[O-],No changes
ffwvd,303.15,101.0,1227.0,Lladosa et al. (2021),Liquid,0.7294,1-ethyl-3-methylimidazolium methyl sulfate,,,CC[n+]1ccn(C)c1.COS(=O)(=O)[O-],1-ethyl-3-methylimidazolium methyl sulfate,AAqmVN,CCO,ethanol,AAIsrh,CC[n+]1ccn(C)c1,COS(=O)(=O)[O-],2,,,,1357,False,CC[n+]1ccn(C)c1.COS(=O)(=O)[O-],No changes
ffwvd,303.15,101.0,1246.05,Lladosa et al. (2021),Liquid,0.8202,1-ethyl-3-methylimidazolium methyl sulfate,,,CC[n+]1ccn(C)c1.COS(=O)(=O)[O-],1-ethyl-3-methylimidazolium methyl sulfate,AAqmVN,CCO,ethanol,AAIsrh,CC[n+]1ccn(C)c1,COS(=O)(=O)[O-],2,,,,1358,False,CC[n+]1ccn(C)c1.COS(=O)(=O)[O-],No changes
ffwvd,303.15,101.0,1262.86,Lladosa et al. (2021),Liquid,0.9108,1-ethyl-3-methylimidazolium methyl sulfate,,,CC[n+]1ccn(C)c1.COS(=O)(=O)[O-],1-ethyl-3-methylimidazolium methyl sulfate,AAqmVN,CCO,ethanol,AAIsrh,CC[n+]1ccn(C)c1,COS(=O)(=O)[O-],2,,,,1359,False,CC[n+]1ccn(C)c1.COS(=O)(=O)[O-],No changes
ffwvd,303.15,101.0,1270.12,Lladosa et al. (2021),Liquid,0.9556,1-ethyl-3-methylimidazolium methyl sulfate,,,CC[n+]1ccn(C)c1.COS(=O)(=O)[O-],1-ethyl-3-methylimidazolium methyl sulfate,AAqmVN,CCO,ethanol,AAIsrh,CC[n+]1ccn(C)c1,COS(=O)(=O)[O-],2,,,,1360,False,CC[n+]1ccn(C)c1.COS(=O)(=O)[O-],No changes
ffwvd,303.15,101.0,1276.81,Lladosa et al. (2021),Liquid,1.0,1-ethyl-3-methylimidazolium methyl sulfate,,,CC[n+]1ccn(C)c1.COS(=O)(=O)[O-],1-ethyl-3-methylimidazolium methyl sulfate,AAqmVN,CCO,ethanol,AAIsrh,CC[n+]1ccn(C)c1,COS(=O)(=O)[O-],2,,,,1361,False,CC[n+]1ccn(C)c1.COS(=O)(=O)[O-],No changes
ffwvd,313.15,101.0,772.12,Lladosa et al. (2021),Liquid,0.0,1-ethyl-3-methylimidazolium methyl sulfate,,,CC[n+]1ccn(C)c1.COS(=O)(=O)[O-],1-ethyl-3-methylimidazolium methyl sulfate,AAqmVN,CCO,ethanol,AAIsrh,CC[n+]1ccn(C)c1,COS(=O)(=O)[O-],2,,,,1362,False,CC[n+]1ccn(C)c1.COS(=O)(=O)[O-],No changes
ffwvd,313.15,101.0,853.08,Lladosa et al. (2021),Liquid,0.0561,1-ethyl-3-methylimidazolium methyl sulfate,,,CC[n+]1ccn(C)c1.COS(=O)(=O)[O-],1-ethyl-3-methylimidazolium methyl sulfate,AAqmVN,CCO,ethanol,AAIsrh,CC[n+]1ccn(C)c1,COS(=O)(=O)[O-],2,,,,1363,False,CC[n+]1ccn(C)c1.COS(=O)(=O)[O-],No changes
ffwvd,313.15,101.0,916.45,Lladosa et al. (2021),Liquid,0.112,1-ethyl-3-methylimidazolium methyl sulfate,,,CC[n+]1ccn(C)c1.COS(=O)(=O)[O-],1-ethyl-3-methylimidazolium methyl sulfate,AAqmVN,CCO,ethanol,AAIsrh,CC[n+]1ccn(C)c1,COS(=O)(=O)[O-],2,,,,1364,False,CC[n+]1ccn(C)c1.COS(=O)(=O)[O-],No changes
ffwvd,313.15,101.0,1007.2,Lladosa et al. (2021),Liquid,0.213,1-ethyl-3-methylimidazolium methyl sulfate,,,CC[n+]1ccn(C)c1.COS(=O)(=O)[O-],1-ethyl-3-methylimidazolium methyl sulfate,AAqmVN,CCO,ethanol,AAIsrh,CC[n+]1ccn(C)c1,COS(=O)(=O)[O-],2,,,,1365,False,CC[n+]1ccn(C)c1.COS(=O)(=O)[O-],No changes
ffwvd,313.15,101.0,1080.31,Lladosa et al. (2021),Liquid,0.3285,1-ethyl-3-methylimidazolium methyl sulfate,,,CC[n+]1ccn(C)c1.COS(=O)(=O)[O-],1-ethyl-3-methylimidazolium methyl sulfate,AAqmVN,CCO,ethanol,AAIsrh,CC[n+]1ccn(C)c1,COS(=O)(=O)[O-],2,,,,1366,False,CC[n+]1ccn(C)c1.COS(=O)(=O)[O-],No changes
ffwvd,313.15,101.0,1094.33,Lladosa et al. (2021),Liquid,0.356,1-ethyl-3-methylimidazolium methyl sulfate,,,CC[n+]1ccn(C)c1.COS(=O)(=O)[O-],1-ethyl-3-methylimidazolium methyl sulfate,AAqmVN,CCO,ethanol,AAIsrh,CC[n+]1ccn(C)c1,COS(=O)(=O)[O-],2,,,,1367,False,CC[n+]1ccn(C)c1.COS(=O)(=O)[O-],No changes
ffwvd,313.15,101.0,1164.55,Lladosa et al. (2021),Liquid,0.525,1-ethyl-3-methylimidazolium methyl sulfate,,,CC[n+]1ccn(C)c1.COS(=O)(=O)[O-],1-ethyl-3-methylimidazolium methyl sulfate,AAqmVN,CCO,ethanol,AAIsrh,CC[n+]1ccn(C)c1,COS(=O)(=O)[O-],2,,,,1368,False,CC[n+]1ccn(C)c1.COS(=O)(=O)[O-],No changes
ffwvd,313.15,101.0,1195.48,Lladosa et al. (2021),Liquid,0.632,1-ethyl-3-methylimidazolium methyl sulfate,,,CC[n+]1ccn(C)c1.COS(=O)(=O)[O-],1-ethyl-3-methylimidazolium methyl sulfate,AAqmVN,CCO,ethanol,AAIsrh,CC[n+]1ccn(C)c1,COS(=O)(=O)[O-],2,,,,1369,False,CC[n+]1ccn(C)c1.COS(=O)(=O)[O-],No changes
ffwvd,313.15,101.0,1220.01,Lladosa et al. (2021),Liquid,0.7294,1-ethyl-3-methylimidazolium methyl sulfate,,,CC[n+]1ccn(C)c1.COS(=O)(=O)[O-],1-ethyl-3-methylimidazolium methyl sulfate,AAqmVN,CCO,ethanol,AAIsrh,CC[n+]1ccn(C)c1,COS(=O)(=O)[O-],2,,,,1370,False,CC[n+]1ccn(C)c1.COS(=O)(=O)[O-],No changes
ffwvd,313.15,101.0,1239.14,Lladosa et al. (2021),Liquid,0.8202,1-ethyl-3-methylimidazolium methyl sulfate,,,CC[n+]1ccn(C)c1.COS(=O)(=O)[O-],1-ethyl-3-methylimidazolium methyl sulfate,AAqmVN,CCO,ethanol,AAIsrh,CC[n+]1ccn(C)c1,COS(=O)(=O)[O-],2,,,,1371,False,CC[n+]1ccn(C)c1.COS(=O)(=O)[O-],No changes
ffwvd,313.15,101.0,1255.96,Lladosa et al. (2021),Liquid,0.9108,1-ethyl-3-methylimidazolium methyl sulfate,,,CC[n+]1ccn(C)c1.COS(=O)(=O)[O-],1-ethyl-3-methylimidazolium methyl sulfate,AAqmVN,CCO,ethanol,AAIsrh,CC[n+]1ccn(C)c1,COS(=O)(=O)[O-],2,,,,1372,False,CC[n+]1ccn(C)c1.COS(=O)(=O)[O-],No changes
ffwvd,313.15,101.0,1263.24,Lladosa et al. (2021),Liquid,0.9556,1-ethyl-3-methylimidazolium methyl sulfate,,,CC[n+]1ccn(C)c1.COS(=O)(=O)[O-],1-ethyl-3-methylimidazolium methyl sulfate,AAqmVN,CCO,ethanol,AAIsrh,CC[n+]1ccn(C)c1,COS(=O)(=O)[O-],2,,,,1373,False,CC[n+]1ccn(C)c1.COS(=O)(=O)[O-],No changes
ffwvd,313.15,101.0,1269.93,Lladosa et al. (2021),Liquid,1.0,1-ethyl-3-methylimidazolium methyl sulfate,,,CC[n+]1ccn(C)c1.COS(=O)(=O)[O-],1-ethyl-3-methylimidazolium methyl sulfate,AAqmVN,CCO,ethanol,AAIsrh,CC[n+]1ccn(C)c1,COS(=O)(=O)[O-],2,,,,1374,False,CC[n+]1ccn(C)c1.COS(=O)(=O)[O-],No changes
ffwvd,323.15,101.0,763.22,Lladosa et al. (2021),Liquid,0.0,1-ethyl-3-methylimidazolium methyl sulfate,,,CC[n+]1ccn(C)c1.COS(=O)(=O)[O-],1-ethyl-3-methylimidazolium methyl sulfate,AAqmVN,CCO,ethanol,AAIsrh,CC[n+]1ccn(C)c1,COS(=O)(=O)[O-],2,,,,1375,False,CC[n+]1ccn(C)c1.COS(=O)(=O)[O-],No changes
ffwvd,323.15,101.0,844.66,Lladosa et al. (2021),Liquid,0.0561,1-ethyl-3-methylimidazolium methyl sulfate,,,CC[n+]1ccn(C)c1.COS(=O)(=O)[O-],1-ethyl-3-methylimidazolium methyl sulfate,AAqmVN,CCO,ethanol,AAIsrh,CC[n+]1ccn(C)c1,COS(=O)(=O)[O-],2,,,,1376,False,CC[n+]1ccn(C)c1.COS(=O)(=O)[O-],No changes
ffwvd,323.15,101.0,908.35,Lladosa et al. (2021),Liquid,0.112,1-ethyl-3-methylimidazolium methyl sulfate,,,CC[n+]1ccn(C)c1.COS(=O)(=O)[O-],1-ethyl-3-methylimidazolium methyl sulfate,AAqmVN,CCO,ethanol,AAIsrh,CC[n+]1ccn(C)c1,COS(=O)(=O)[O-],2,,,,1377,False,CC[n+]1ccn(C)c1.COS(=O)(=O)[O-],No changes
ffwvd,323.15,101.0,999.43,Lladosa et al. (2021),Liquid,0.213,1-ethyl-3-methylimidazolium methyl sulfate,,,CC[n+]1ccn(C)c1.COS(=O)(=O)[O-],1-ethyl-3-methylimidazolium methyl sulfate,AAqmVN,CCO,ethanol,AAIsrh,CC[n+]1ccn(C)c1,COS(=O)(=O)[O-],2,,,,1378,False,CC[n+]1ccn(C)c1.COS(=O)(=O)[O-],No changes
ffwvd,323.15,101.0,1072.89,Lladosa et al. (2021),Liquid,0.3285,1-ethyl-3-methylimidazolium methyl sulfate,,,CC[n+]1ccn(C)c1.COS(=O)(=O)[O-],1-ethyl-3-methylimidazolium methyl sulfate,AAqmVN,CCO,ethanol,AAIsrh,CC[n+]1ccn(C)c1,COS(=O)(=O)[O-],2,,,,1379,False,CC[n+]1ccn(C)c1.COS(=O)(=O)[O-],No changes
ffwvd,323.15,101.0,1086.98,Lladosa et al. (2021),Liquid,0.356,1-ethyl-3-methylimidazolium methyl sulfate,,,CC[n+]1ccn(C)c1.COS(=O)(=O)[O-],1-ethyl-3-methylimidazolium methyl sulfate,AAqmVN,CCO,ethanol,AAIsrh,CC[n+]1ccn(C)c1,COS(=O)(=O)[O-],2,,,,1380,False,CC[n+]1ccn(C)c1.COS(=O)(=O)[O-],No changes
ffwvd,323.15,101.0,1157.43,Lladosa et al. (2021),Liquid,0.525,1-ethyl-3-methylimidazolium methyl sulfate,,,CC[n+]1ccn(C)c1.COS(=O)(=O)[O-],1-ethyl-3-methylimidazolium methyl sulfate,AAqmVN,CCO,ethanol,AAIsrh,CC[n+]1ccn(C)c1,COS(=O)(=O)[O-],2,,,,1381,False,CC[n+]1ccn(C)c1.COS(=O)(=O)[O-],No changes
ffwvd,323.15,101.0,1188.59,Lladosa et al. (2021),Liquid,0.632,1-ethyl-3-methylimidazolium methyl sulfate,,,CC[n+]1ccn(C)c1.COS(=O)(=O)[O-],1-ethyl-3-methylimidazolium methyl sulfate,AAqmVN,CCO,ethanol,AAIsrh,CC[n+]1ccn(C)c1,COS(=O)(=O)[O-],2,,,,1382,False,CC[n+]1ccn(C)c1.COS(=O)(=O)[O-],No changes
ffwvd,323.15,101.0,1213.06,Lladosa et al. (2021),Liquid,0.7294,1-ethyl-3-methylimidazolium methyl sulfate,,,CC[n+]1ccn(C)c1.COS(=O)(=O)[O-],1-ethyl-3-methylimidazolium methyl sulfate,AAqmVN,CCO,ethanol,AAIsrh,CC[n+]1ccn(C)c1,COS(=O)(=O)[O-],2,,,,1383,False,CC[n+]1ccn(C)c1.COS(=O)(=O)[O-],No changes
ffwvd,323.15,101.0,1232.31,Lladosa et al. (2021),Liquid,0.8202,1-ethyl-3-methylimidazolium methyl sulfate,,,CC[n+]1ccn(C)c1.COS(=O)(=O)[O-],1-ethyl-3-methylimidazolium methyl sulfate,AAqmVN,CCO,ethanol,AAIsrh,CC[n+]1ccn(C)c1,COS(=O)(=O)[O-],2,,,,1384,False,CC[n+]1ccn(C)c1.COS(=O)(=O)[O-],No changes
ffwvd,323.15,101.0,1249.11,Lladosa et al. (2021),Liquid,0.9108,1-ethyl-3-methylimidazolium methyl sulfate,,,CC[n+]1ccn(C)c1.COS(=O)(=O)[O-],1-ethyl-3-methylimidazolium methyl sulfate,AAqmVN,CCO,ethanol,AAIsrh,CC[n+]1ccn(C)c1,COS(=O)(=O)[O-],2,,,,1385,False,CC[n+]1ccn(C)c1.COS(=O)(=O)[O-],No changes
ffwvd,323.15,101.0,1256.42,Lladosa et al. (2021),Liquid,0.9556,1-ethyl-3-methylimidazolium methyl sulfate,,,CC[n+]1ccn(C)c1.COS(=O)(=O)[O-],1-ethyl-3-methylimidazolium methyl sulfate,AAqmVN,CCO,ethanol,AAIsrh,CC[n+]1ccn(C)c1,COS(=O)(=O)[O-],2,,,,1386,False,CC[n+]1ccn(C)c1.COS(=O)(=O)[O-],No changes
ffwvd,323.15,101.0,1263.12,Lladosa et al. (2021),Liquid,1.0,1-ethyl-3-methylimidazolium methyl sulfate,,,CC[n+]1ccn(C)c1.COS(=O)(=O)[O-],1-ethyl-3-methylimidazolium methyl sulfate,AAqmVN,CCO,ethanol,AAIsrh,CC[n+]1ccn(C)c1,COS(=O)(=O)[O-],2,,,,1387,False,CC[n+]1ccn(C)c1.COS(=O)(=O)[O-],No changes
DidcB,278.15,101.0,802.39,Salinas et al. (2015),Liquid,0.0,1-butyl-3-methylimidazolium bis(trifluoromethylsulfonyl)imide,,,CCCC[n+]1ccn(C)c1.O=S(=O)([N-]S(=O)(=O)C(F)(F)F)C(F)(F)F,1-butyl-3-methylimidazolium bis(trifluoromethylsulfonyl)imide,ABchwx,CCO,ethanol,AAIsrh,CCCC[n+]1ccn(C)c1,O=S(=O)([N-]S(=O)(=O)C(F)(F)F)C(F)(F)F,2,,,,1388,False,CCCC[n+]1ccn(C)c1.O=S(=O)([N-]S(=O)(=O)C(F)(F)F)C(F)(F)F,No changes
DidcB,278.15,101.0,939.65,Salinas et al. (2015),Liquid,0.049,1-butyl-3-methylimidazolium bis(trifluoromethylsulfonyl)imide,,,CCCC[n+]1ccn(C)c1.O=S(=O)([N-]S(=O)(=O)C(F)(F)F)C(F)(F)F,1-butyl-3-methylimidazolium bis(trifluoromethylsulfonyl)imide,ABchwx,CCO,ethanol,AAIsrh,CCCC[n+]1ccn(C)c1,O=S(=O)([N-]S(=O)(=O)C(F)(F)F)C(F)(F)F,2,,,,1389,False,CCCC[n+]1ccn(C)c1.O=S(=O)([N-]S(=O)(=O)C(F)(F)F)C(F)(F)F,No changes
DidcB,278.15,101.0,1032.42,Salinas et al. (2015),Liquid,0.096,1-butyl-3-methylimidazolium bis(trifluoromethylsulfonyl)imide,,,CCCC[n+]1ccn(C)c1.O=S(=O)([N-]S(=O)(=O)C(F)(F)F)C(F)(F)F,1-butyl-3-methylimidazolium bis(trifluoromethylsulfonyl)imide,ABchwx,CCO,ethanol,AAIsrh,CCCC[n+]1ccn(C)c1,O=S(=O)([N-]S(=O)(=O)C(F)(F)F)C(F)(F)F,2,,,,1390,False,CCCC[n+]1ccn(C)c1.O=S(=O)([N-]S(=O)(=O)C(F)(F)F)C(F)(F)F,No changes
DidcB,278.15,101.0,1162.65,Salinas et al. (2015),Liquid,0.194,1-butyl-3-methylimidazolium bis(trifluoromethylsulfonyl)imide,,,CCCC[n+]1ccn(C)c1.O=S(=O)([N-]S(=O)(=O)C(F)(F)F)C(F)(F)F,1-butyl-3-methylimidazolium bis(trifluoromethylsulfonyl)imide,ABchwx,CCO,ethanol,AAIsrh,CCCC[n+]1ccn(C)c1,O=S(=O)([N-]S(=O)(=O)C(F)(F)F)C(F)(F)F,2,,,,1391,False,CCCC[n+]1ccn(C)c1.O=S(=O)([N-]S(=O)(=O)C(F)(F)F)C(F)(F)F,No changes
DidcB,278.15,101.0,1241.69,Salinas et al. (2015),Liquid,0.288,1-butyl-3-methylimidazolium bis(trifluoromethylsulfonyl)imide,,,CCCC[n+]1ccn(C)c1.O=S(=O)([N-]S(=O)(=O)C(F)(F)F)C(F)(F)F,1-butyl-3-methylimidazolium bis(trifluoromethylsulfonyl)imide,ABchwx,CCO,ethanol,AAIsrh,CCCC[n+]1ccn(C)c1,O=S(=O)([N-]S(=O)(=O)C(F)(F)F)C(F)(F)F,2,,,,1392,False,CCCC[n+]1ccn(C)c1.O=S(=O)([N-]S(=O)(=O)C(F)(F)F)C(F)(F)F,No changes
DidcB,278.15,101.0,1300.98,Salinas et al. (2015),Liquid,0.39,1-butyl-3-methylimidazolium bis(trifluoromethylsulfonyl)imide,,,CCCC[n+]1ccn(C)c1.O=S(=O)([N-]S(=O)(=O)C(F)(F)F)C(F)(F)F,1-butyl-3-methylimidazolium bis(trifluoromethylsulfonyl)imide,ABchwx,CCO,ethanol,AAIsrh,CCCC[n+]1ccn(C)c1,O=S(=O)([N-]S(=O)(=O)C(F)(F)F)C(F)(F)F,2,,,,1393,False,CCCC[n+]1ccn(C)c1.O=S(=O)([N-]S(=O)(=O)C(F)(F)F)C(F)(F)F,No changes
DidcB,278.15,101.0,1340.75,Salinas et al. (2015),Liquid,0.484,1-butyl-3-methylimidazolium bis(trifluoromethylsulfonyl)imide,,,CCCC[n+]1ccn(C)c1.O=S(=O)([N-]S(=O)(=O)C(F)(F)F)C(F)(F)F,1-butyl-3-methylimidazolium bis(trifluoromethylsulfonyl)imide,ABchwx,CCO,ethanol,AAIsrh,CCCC[n+]1ccn(C)c1,O=S(=O)([N-]S(=O)(=O)C(F)(F)F)C(F)(F)F,2,,,,1394,False,CCCC[n+]1ccn(C)c1.O=S(=O)([N-]S(=O)(=O)C(F)(F)F)C(F)(F)F,No changes
DidcB,278.15,101.0,1375.63,Salinas et al. (2015),Liquid,0.591,1-butyl-3-methylimidazolium bis(trifluoromethylsulfonyl)imide,,,CCCC[n+]1ccn(C)c1.O=S(=O)([N-]S(=O)(=O)C(F)(F)F)C(F)(F)F,1-butyl-3-methylimidazolium bis(trifluoromethylsulfonyl)imide,ABchwx,CCO,ethanol,AAIsrh,CCCC[n+]1ccn(C)c1,O=S(=O)([N-]S(=O)(=O)C(F)(F)F)C(F)(F)F,2,,,,1395,False,CCCC[n+]1ccn(C)c1.O=S(=O)([N-]S(=O)(=O)C(F)(F)F)C(F)(F)F,No changes
DidcB,278.15,101.0,1401.82,Salinas et al. (2015),Liquid,0.696,1-butyl-3-methylimidazolium bis(trifluoromethylsulfonyl)imide,,,CCCC[n+]1ccn(C)c1.O=S(=O)([N-]S(=O)(=O)C(F)(F)F)C(F)(F)F,1-butyl-3-methylimidazolium bis(trifluoromethylsulfonyl)imide,ABchwx,CCO,ethanol,AAIsrh,CCCC[n+]1ccn(C)c1,O=S(=O)([N-]S(=O)(=O)C(F)(F)F)C(F)(F)F,2,,,,1396,False,CCCC[n+]1ccn(C)c1.O=S(=O)([N-]S(=O)(=O)C(F)(F)F)C(F)(F)F,No changes
DidcB,278.15,101.0,1426.17,Salinas et al. (2015),Liquid,0.818,1-butyl-3-methylimidazolium bis(trifluoromethylsulfonyl)imide,,,CCCC[n+]1ccn(C)c1.O=S(=O)([N-]S(=O)(=O)C(F)(F)F)C(F)(F)F,1-butyl-3-methylimidazolium bis(trifluoromethylsulfonyl)imide,ABchwx,CCO,ethanol,AAIsrh,CCCC[n+]1ccn(C)c1,O=S(=O)([N-]S(=O)(=O)C(F)(F)F)C(F)(F)F,2,,,,1397,False,CCCC[n+]1ccn(C)c1.O=S(=O)([N-]S(=O)(=O)C(F)(F)F)C(F)(F)F,No changes
DidcB,278.15,101.0,1439.65,Salinas et al. (2015),Liquid,0.9,1-butyl-3-methylimidazolium bis(trifluoromethylsulfonyl)imide,,,CCCC[n+]1ccn(C)c1.O=S(=O)([N-]S(=O)(=O)C(F)(F)F)C(F)(F)F,1-butyl-3-methylimidazolium bis(trifluoromethylsulfonyl)imide,ABchwx,CCO,ethanol,AAIsrh,CCCC[n+]1ccn(C)c1,O=S(=O)([N-]S(=O)(=O)C(F)(F)F)C(F)(F)F,2,,,,1398,False,CCCC[n+]1ccn(C)c1.O=S(=O)([N-]S(=O)(=O)C(F)(F)F)C(F)(F)F,No changes
DidcB,278.15,101.0,1453.69,Salinas et al. (2015),Liquid,1.0,1-butyl-3-methylimidazolium bis(trifluoromethylsulfonyl)imide,,,CCCC[n+]1ccn(C)c1.O=S(=O)([N-]S(=O)(=O)C(F)(F)F)C(F)(F)F,1-butyl-3-methylimidazolium bis(trifluoromethylsulfonyl)imide,ABchwx,CCO,ethanol,AAIsrh,CCCC[n+]1ccn(C)c1,O=S(=O)([N-]S(=O)(=O)C(F)(F)F)C(F)(F)F,2,,,,1399,False,CCCC[n+]1ccn(C)c1.O=S(=O)([N-]S(=O)(=O)C(F)(F)F)C(F)(F)F,No changes
DidcB,298.15,101.0,785.32,Salinas et al. (2015),Liquid,0.0,1-butyl-3-methylimidazolium bis(trifluoromethylsulfonyl)imide,,,CCCC[n+]1ccn(C)c1.O=S(=O)([N-]S(=O)(=O)C(F)(F)F)C(F)(F)F,1-butyl-3-methylimidazolium bis(trifluoromethylsulfonyl)imide,ABchwx,CCO,ethanol,AAIsrh,CCCC[n+]1ccn(C)c1,O=S(=O)([N-]S(=O)(=O)C(F)(F)F)C(F)(F)F,2,,,,1400,False,CCCC[n+]1ccn(C)c1.O=S(=O)([N-]S(=O)(=O)C(F)(F)F)C(F)(F)F,No changes
DidcB,298.15,101.0,921.49,Salinas et al. (2015),Liquid,0.049,1-butyl-3-methylimidazolium bis(trifluoromethylsulfonyl)imide,,,CCCC[n+]1ccn(C)c1.O=S(=O)([N-]S(=O)(=O)C(F)(F)F)C(F)(F)F,1-butyl-3-methylimidazolium bis(trifluoromethylsulfonyl)imide,ABchwx,CCO,ethanol,AAIsrh,CCCC[n+]1ccn(C)c1,O=S(=O)([N-]S(=O)(=O)C(F)(F)F)C(F)(F)F,2,,,,1401,False,CCCC[n+]1ccn(C)c1.O=S(=O)([N-]S(=O)(=O)C(F)(F)F)C(F)(F)F,No changes
DidcB,298.15,101.0,1013.65,Salinas et al. (2015),Liquid,0.096,1-butyl-3-methylimidazolium bis(trifluoromethylsulfonyl)imide,,,CCCC[n+]1ccn(C)c1.O=S(=O)([N-]S(=O)(=O)C(F)(F)F)C(F)(F)F,1-butyl-3-methylimidazolium bis(trifluoromethylsulfonyl)imide,ABchwx,CCO,ethanol,AAIsrh,CCCC[n+]1ccn(C)c1,O=S(=O)([N-]S(=O)(=O)C(F)(F)F)C(F)(F)F,2,,,,1402,False,CCCC[n+]1ccn(C)c1.O=S(=O)([N-]S(=O)(=O)C(F)(F)F)C(F)(F)F,No changes
DidcB,298.15,101.0,1143.26,Salinas et al. (2015),Liquid,0.194,1-butyl-3-methylimidazolium bis(trifluoromethylsulfonyl)imide,,,CCCC[n+]1ccn(C)c1.O=S(=O)([N-]S(=O)(=O)C(F)(F)F)C(F)(F)F,1-butyl-3-methylimidazolium bis(trifluoromethylsulfonyl)imide,ABchwx,CCO,ethanol,AAIsrh,CCCC[n+]1ccn(C)c1,O=S(=O)([N-]S(=O)(=O)C(F)(F)F)C(F)(F)F,2,,,,1403,False,CCCC[n+]1ccn(C)c1.O=S(=O)([N-]S(=O)(=O)C(F)(F)F)C(F)(F)F,No changes
DidcB,298.15,101.0,1222.07,Salinas et al. (2015),Liquid,0.288,1-butyl-3-methylimidazolium bis(trifluoromethylsulfonyl)imide,,,CCCC[n+]1ccn(C)c1.O=S(=O)([N-]S(=O)(=O)C(F)(F)F)C(F)(F)F,1-butyl-3-methylimidazolium bis(trifluoromethylsulfonyl)imide,ABchwx,CCO,ethanol,AAIsrh,CCCC[n+]1ccn(C)c1,O=S(=O)([N-]S(=O)(=O)C(F)(F)F)C(F)(F)F,2,,,,1404,False,CCCC[n+]1ccn(C)c1.O=S(=O)([N-]S(=O)(=O)C(F)(F)F)C(F)(F)F,No changes
DidcB,298.15,101.0,1281.27,Salinas et al. (2015),Liquid,0.39,1-butyl-3-methylimidazolium bis(trifluoromethylsulfonyl)imide,,,CCCC[n+]1ccn(C)c1.O=S(=O)([N-]S(=O)(=O)C(F)(F)F)C(F)(F)F,1-butyl-3-methylimidazolium bis(trifluoromethylsulfonyl)imide,ABchwx,CCO,ethanol,AAIsrh,CCCC[n+]1ccn(C)c1,O=S(=O)([N-]S(=O)(=O)C(F)(F)F)C(F)(F)F,2,,,,1405,False,CCCC[n+]1ccn(C)c1.O=S(=O)([N-]S(=O)(=O)C(F)(F)F)C(F)(F)F,No changes