setid,Temperature (K),Pressure (kPa),Density (kg/m3),reference,phases,Mole fraction,Mole fraction of compound name,Weight fraction,Weight fraction of compound name,IL_SMILES,IL_name,IL_ID,Solvent_SMILES,Solvent_name,Solvent_ID,IL_cation_SMILES,IL_anion_SMILES,IL_component_number,Mole fraction of solvent,IL_MW,Solvent_MW,Record_ID,Contains_Metal,Standardized_IL_SMILES,Changes
oqWVb,318.15,101.0,767.8,Garcia-Miaja et al. (2007),Liquid,0.0,1-butyl-3-methylpyridinium tetrafluoroborate,,,CCCC[n+]1cccc(C)c1.F[B-](F)(F)F,1-butyl-3-methylpyridinium tetrafluoroborate,AAtejH,CCO,ethanol,AAIsrh,CCCC[n+]1cccc(C)c1,F[B-](F)(F)F,2,,,,2926,False,CCCC[n+]1cccc(C)c1.F[B-](F)(F)F,No changes
oqWVb,318.15,101.0,778.9,Garcia-Miaja et al. (2007),Liquid,0.0073,1-butyl-3-methylpyridinium tetrafluoroborate,,,CCCC[n+]1cccc(C)c1.F[B-](F)(F)F,1-butyl-3-methylpyridinium tetrafluoroborate,AAtejH,CCO,ethanol,AAIsrh,CCCC[n+]1cccc(C)c1,F[B-](F)(F)F,2,,,,2927,False,CCCC[n+]1cccc(C)c1.F[B-](F)(F)F,No changes
oqWVb,318.15,101.0,786.2,Garcia-Miaja et al. (2007),Liquid,0.0126,1-butyl-3-methylpyridinium tetrafluoroborate,,,CCCC[n+]1cccc(C)c1.F[B-](F)(F)F,1-butyl-3-methylpyridinium tetrafluoroborate,AAtejH,CCO,ethanol,AAIsrh,CCCC[n+]1cccc(C)c1,F[B-](F)(F)F,2,,,,2928,False,CCCC[n+]1cccc(C)c1.F[B-](F)(F)F,No changes
oqWVb,318.15,101.0,800.3,Garcia-Miaja et al. (2007),Liquid,0.0231,1-butyl-3-methylpyridinium tetrafluoroborate,,,CCCC[n+]1cccc(C)c1.F[B-](F)(F)F,1-butyl-3-methylpyridinium tetrafluoroborate,AAtejH,CCO,ethanol,AAIsrh,CCCC[n+]1cccc(C)c1,F[B-](F)(F)F,2,,,,2929,False,CCCC[n+]1cccc(C)c1.F[B-](F)(F)F,No changes
oqWVb,318.15,101.0,834.1,Garcia-Miaja et al. (2007),Liquid,0.0512,1-butyl-3-methylpyridinium tetrafluoroborate,,,CCCC[n+]1cccc(C)c1.F[B-](F)(F)F,1-butyl-3-methylpyridinium tetrafluoroborate,AAtejH,CCO,ethanol,AAIsrh,CCCC[n+]1cccc(C)c1,F[B-](F)(F)F,2,,,,2930,False,CCCC[n+]1cccc(C)c1.F[B-](F)(F)F,No changes
oqWVb,318.15,101.0,883.7,Garcia-Miaja et al. (2007),Liquid,0.1003,1-butyl-3-methylpyridinium tetrafluoroborate,,,CCCC[n+]1cccc(C)c1.F[B-](F)(F)F,1-butyl-3-methylpyridinium tetrafluoroborate,AAtejH,CCO,ethanol,AAIsrh,CCCC[n+]1cccc(C)c1,F[B-](F)(F)F,2,,,,2931,False,CCCC[n+]1cccc(C)c1.F[B-](F)(F)F,No changes
oqWVb,318.15,101.0,990.9,Garcia-Miaja et al. (2007),Liquid,0.2569,1-butyl-3-methylpyridinium tetrafluoroborate,,,CCCC[n+]1cccc(C)c1.F[B-](F)(F)F,1-butyl-3-methylpyridinium tetrafluoroborate,AAtejH,CCO,ethanol,AAIsrh,CCCC[n+]1cccc(C)c1,F[B-](F)(F)F,2,,,,2932,False,CCCC[n+]1cccc(C)c1.F[B-](F)(F)F,No changes
oqWVb,318.15,101.0,1046.7,Garcia-Miaja et al. (2007),Liquid,0.3847,1-butyl-3-methylpyridinium tetrafluoroborate,,,CCCC[n+]1cccc(C)c1.F[B-](F)(F)F,1-butyl-3-methylpyridinium tetrafluoroborate,AAtejH,CCO,ethanol,AAIsrh,CCCC[n+]1cccc(C)c1,F[B-](F)(F)F,2,,,,2933,False,CCCC[n+]1cccc(C)c1.F[B-](F)(F)F,No changes
oqWVb,318.15,101.0,1078.7,Garcia-Miaja et al. (2007),Liquid,0.4841,1-butyl-3-methylpyridinium tetrafluoroborate,,,CCCC[n+]1cccc(C)c1.F[B-](F)(F)F,1-butyl-3-methylpyridinium tetrafluoroborate,AAtejH,CCO,ethanol,AAIsrh,CCCC[n+]1cccc(C)c1,F[B-](F)(F)F,2,,,,2934,False,CCCC[n+]1cccc(C)c1.F[B-](F)(F)F,No changes
oqWVb,318.15,101.0,1107.1,Garcia-Miaja et al. (2007),Liquid,0.5963,1-butyl-3-methylpyridinium tetrafluoroborate,,,CCCC[n+]1cccc(C)c1.F[B-](F)(F)F,1-butyl-3-methylpyridinium tetrafluoroborate,AAtejH,CCO,ethanol,AAIsrh,CCCC[n+]1cccc(C)c1,F[B-](F)(F)F,2,,,,2935,False,CCCC[n+]1cccc(C)c1.F[B-](F)(F)F,No changes
oqWVb,318.15,101.0,1130.4,Garcia-Miaja et al. (2007),Liquid,0.7107,1-butyl-3-methylpyridinium tetrafluoroborate,,,CCCC[n+]1cccc(C)c1.F[B-](F)(F)F,1-butyl-3-methylpyridinium tetrafluoroborate,AAtejH,CCO,ethanol,AAIsrh,CCCC[n+]1cccc(C)c1,F[B-](F)(F)F,2,,,,2936,False,CCCC[n+]1cccc(C)c1.F[B-](F)(F)F,No changes
oqWVb,318.15,101.0,1144.8,Garcia-Miaja et al. (2007),Liquid,0.7966,1-butyl-3-methylpyridinium tetrafluoroborate,,,CCCC[n+]1cccc(C)c1.F[B-](F)(F)F,1-butyl-3-methylpyridinium tetrafluoroborate,AAtejH,CCO,ethanol,AAIsrh,CCCC[n+]1cccc(C)c1,F[B-](F)(F)F,2,,,,2937,False,CCCC[n+]1cccc(C)c1.F[B-](F)(F)F,No changes
oqWVb,318.15,101.0,1166.0,Garcia-Miaja et al. (2007),Liquid,0.9514,1-butyl-3-methylpyridinium tetrafluoroborate,,,CCCC[n+]1cccc(C)c1.F[B-](F)(F)F,1-butyl-3-methylpyridinium tetrafluoroborate,AAtejH,CCO,ethanol,AAIsrh,CCCC[n+]1cccc(C)c1,F[B-](F)(F)F,2,,,,2938,False,CCCC[n+]1cccc(C)c1.F[B-](F)(F)F,No changes
oqWVb,318.15,101.0,1171.6,Garcia-Miaja et al. (2007),Liquid,1.0,1-butyl-3-methylpyridinium tetrafluoroborate,,,CCCC[n+]1cccc(C)c1.F[B-](F)(F)F,1-butyl-3-methylpyridinium tetrafluoroborate,AAtejH,CCO,ethanol,AAIsrh,CCCC[n+]1cccc(C)c1,F[B-](F)(F)F,2,,,,2939,False,CCCC[n+]1cccc(C)c1.F[B-](F)(F)F,No changes
hsQMK,293.15,100.0,789.5,Santos et al. (2017),Liquid,0.0,tributylmethylammonium bis((trifluoromethyl)sulfonyl)imide,,,CCCC[N+](C)(CCCC)CCCC.O=S(=O)([N-]S(=O)(=O)C(F)(F)F)C(F)(F)F,tributylmethylammonium bis((trifluoromethyl)sulfonyl)imide,ABoVAt,CCO,ethanol,AAIsrh,CCCC[N+](C)(CCCC)CCCC,O=S(=O)([N-]S(=O)(=O)C(F)(F)F)C(F)(F)F,2,,,,2940,False,CCCC[N+](C)(CCCC)CCCC.O=S(=O)([N-]S(=O)(=O)C(F)(F)F)C(F)(F)F,No changes
hsQMK,298.15,100.0,785.2,Santos et al. (2017),Liquid,0.0,tributylmethylammonium bis((trifluoromethyl)sulfonyl)imide,,,CCCC[N+](C)(CCCC)CCCC.O=S(=O)([N-]S(=O)(=O)C(F)(F)F)C(F)(F)F,tributylmethylammonium bis((trifluoromethyl)sulfonyl)imide,ABoVAt,CCO,ethanol,AAIsrh,CCCC[N+](C)(CCCC)CCCC,O=S(=O)([N-]S(=O)(=O)C(F)(F)F)C(F)(F)F,2,,,,2941,False,CCCC[N+](C)(CCCC)CCCC.O=S(=O)([N-]S(=O)(=O)C(F)(F)F)C(F)(F)F,No changes
hsQMK,303.15,100.0,780.8,Santos et al. (2017),Liquid,0.0,tributylmethylammonium bis((trifluoromethyl)sulfonyl)imide,,,CCCC[N+](C)(CCCC)CCCC.O=S(=O)([N-]S(=O)(=O)C(F)(F)F)C(F)(F)F,tributylmethylammonium bis((trifluoromethyl)sulfonyl)imide,ABoVAt,CCO,ethanol,AAIsrh,CCCC[N+](C)(CCCC)CCCC,O=S(=O)([N-]S(=O)(=O)C(F)(F)F)C(F)(F)F,2,,,,2942,False,CCCC[N+](C)(CCCC)CCCC.O=S(=O)([N-]S(=O)(=O)C(F)(F)F)C(F)(F)F,No changes
hsQMK,308.15,100.0,776.4,Santos et al. (2017),Liquid,0.0,tributylmethylammonium bis((trifluoromethyl)sulfonyl)imide,,,CCCC[N+](C)(CCCC)CCCC.O=S(=O)([N-]S(=O)(=O)C(F)(F)F)C(F)(F)F,tributylmethylammonium bis((trifluoromethyl)sulfonyl)imide,ABoVAt,CCO,ethanol,AAIsrh,CCCC[N+](C)(CCCC)CCCC,O=S(=O)([N-]S(=O)(=O)C(F)(F)F)C(F)(F)F,2,,,,2943,False,CCCC[N+](C)(CCCC)CCCC.O=S(=O)([N-]S(=O)(=O)C(F)(F)F)C(F)(F)F,No changes
hsQMK,293.15,100.0,833.4,Santos et al. (2017),Liquid,0.0149,tributylmethylammonium bis((trifluoromethyl)sulfonyl)imide,,,CCCC[N+](C)(CCCC)CCCC.O=S(=O)([N-]S(=O)(=O)C(F)(F)F)C(F)(F)F,tributylmethylammonium bis((trifluoromethyl)sulfonyl)imide,ABoVAt,CCO,ethanol,AAIsrh,CCCC[N+](C)(CCCC)CCCC,O=S(=O)([N-]S(=O)(=O)C(F)(F)F)C(F)(F)F,2,,,,2944,False,CCCC[N+](C)(CCCC)CCCC.O=S(=O)([N-]S(=O)(=O)C(F)(F)F)C(F)(F)F,No changes
hsQMK,298.15,100.0,829.1,Santos et al. (2017),Liquid,0.0149,tributylmethylammonium bis((trifluoromethyl)sulfonyl)imide,,,CCCC[N+](C)(CCCC)CCCC.O=S(=O)([N-]S(=O)(=O)C(F)(F)F)C(F)(F)F,tributylmethylammonium bis((trifluoromethyl)sulfonyl)imide,ABoVAt,CCO,ethanol,AAIsrh,CCCC[N+](C)(CCCC)CCCC,O=S(=O)([N-]S(=O)(=O)C(F)(F)F)C(F)(F)F,2,,,,2945,False,CCCC[N+](C)(CCCC)CCCC.O=S(=O)([N-]S(=O)(=O)C(F)(F)F)C(F)(F)F,No changes
hsQMK,303.15,100.0,824.8,Santos et al. (2017),Liquid,0.0149,tributylmethylammonium bis((trifluoromethyl)sulfonyl)imide,,,CCCC[N+](C)(CCCC)CCCC.O=S(=O)([N-]S(=O)(=O)C(F)(F)F)C(F)(F)F,tributylmethylammonium bis((trifluoromethyl)sulfonyl)imide,ABoVAt,CCO,ethanol,AAIsrh,CCCC[N+](C)(CCCC)CCCC,O=S(=O)([N-]S(=O)(=O)C(F)(F)F)C(F)(F)F,2,,,,2946,False,CCCC[N+](C)(CCCC)CCCC.O=S(=O)([N-]S(=O)(=O)C(F)(F)F)C(F)(F)F,No changes
hsQMK,308.15,100.0,820.4,Santos et al. (2017),Liquid,0.0149,tributylmethylammonium bis((trifluoromethyl)sulfonyl)imide,,,CCCC[N+](C)(CCCC)CCCC.O=S(=O)([N-]S(=O)(=O)C(F)(F)F)C(F)(F)F,tributylmethylammonium bis((trifluoromethyl)sulfonyl)imide,ABoVAt,CCO,ethanol,AAIsrh,CCCC[N+](C)(CCCC)CCCC,O=S(=O)([N-]S(=O)(=O)C(F)(F)F)C(F)(F)F,2,,,,2947,False,CCCC[N+](C)(CCCC)CCCC.O=S(=O)([N-]S(=O)(=O)C(F)(F)F)C(F)(F)F,No changes
hsQMK,293.15,100.0,870.7,Santos et al. (2017),Liquid,0.0298,tributylmethylammonium bis((trifluoromethyl)sulfonyl)imide,,,CCCC[N+](C)(CCCC)CCCC.O=S(=O)([N-]S(=O)(=O)C(F)(F)F)C(F)(F)F,tributylmethylammonium bis((trifluoromethyl)sulfonyl)imide,ABoVAt,CCO,ethanol,AAIsrh,CCCC[N+](C)(CCCC)CCCC,O=S(=O)([N-]S(=O)(=O)C(F)(F)F)C(F)(F)F,2,,,,2948,False,CCCC[N+](C)(CCCC)CCCC.O=S(=O)([N-]S(=O)(=O)C(F)(F)F)C(F)(F)F,No changes
hsQMK,298.15,100.0,866.3,Santos et al. (2017),Liquid,0.0298,tributylmethylammonium bis((trifluoromethyl)sulfonyl)imide,,,CCCC[N+](C)(CCCC)CCCC.O=S(=O)([N-]S(=O)(=O)C(F)(F)F)C(F)(F)F,tributylmethylammonium bis((trifluoromethyl)sulfonyl)imide,ABoVAt,CCO,ethanol,AAIsrh,CCCC[N+](C)(CCCC)CCCC,O=S(=O)([N-]S(=O)(=O)C(F)(F)F)C(F)(F)F,2,,,,2949,False,CCCC[N+](C)(CCCC)CCCC.O=S(=O)([N-]S(=O)(=O)C(F)(F)F)C(F)(F)F,No changes
hsQMK,303.15,100.0,861.9,Santos et al. (2017),Liquid,0.0298,tributylmethylammonium bis((trifluoromethyl)sulfonyl)imide,,,CCCC[N+](C)(CCCC)CCCC.O=S(=O)([N-]S(=O)(=O)C(F)(F)F)C(F)(F)F,tributylmethylammonium bis((trifluoromethyl)sulfonyl)imide,ABoVAt,CCO,ethanol,AAIsrh,CCCC[N+](C)(CCCC)CCCC,O=S(=O)([N-]S(=O)(=O)C(F)(F)F)C(F)(F)F,2,,,,2950,False,CCCC[N+](C)(CCCC)CCCC.O=S(=O)([N-]S(=O)(=O)C(F)(F)F)C(F)(F)F,No changes
hsQMK,308.15,100.0,857.3,Santos et al. (2017),Liquid,0.0298,tributylmethylammonium bis((trifluoromethyl)sulfonyl)imide,,,CCCC[N+](C)(CCCC)CCCC.O=S(=O)([N-]S(=O)(=O)C(F)(F)F)C(F)(F)F,tributylmethylammonium bis((trifluoromethyl)sulfonyl)imide,ABoVAt,CCO,ethanol,AAIsrh,CCCC[N+](C)(CCCC)CCCC,O=S(=O)([N-]S(=O)(=O)C(F)(F)F)C(F)(F)F,2,,,,2951,False,CCCC[N+](C)(CCCC)CCCC.O=S(=O)([N-]S(=O)(=O)C(F)(F)F)C(F)(F)F,No changes
hsQMK,293.15,100.0,893.1,Santos et al. (2017),Liquid,0.04,tributylmethylammonium bis((trifluoromethyl)sulfonyl)imide,,,CCCC[N+](C)(CCCC)CCCC.O=S(=O)([N-]S(=O)(=O)C(F)(F)F)C(F)(F)F,tributylmethylammonium bis((trifluoromethyl)sulfonyl)imide,ABoVAt,CCO,ethanol,AAIsrh,CCCC[N+](C)(CCCC)CCCC,O=S(=O)([N-]S(=O)(=O)C(F)(F)F)C(F)(F)F,2,,,,2952,False,CCCC[N+](C)(CCCC)CCCC.O=S(=O)([N-]S(=O)(=O)C(F)(F)F)C(F)(F)F,No changes
hsQMK,298.15,100.0,888.8,Santos et al. (2017),Liquid,0.04,tributylmethylammonium bis((trifluoromethyl)sulfonyl)imide,,,CCCC[N+](C)(CCCC)CCCC.O=S(=O)([N-]S(=O)(=O)C(F)(F)F)C(F)(F)F,tributylmethylammonium bis((trifluoromethyl)sulfonyl)imide,ABoVAt,CCO,ethanol,AAIsrh,CCCC[N+](C)(CCCC)CCCC,O=S(=O)([N-]S(=O)(=O)C(F)(F)F)C(F)(F)F,2,,,,2953,False,CCCC[N+](C)(CCCC)CCCC.O=S(=O)([N-]S(=O)(=O)C(F)(F)F)C(F)(F)F,No changes
hsQMK,303.15,100.0,884.4,Santos et al. (2017),Liquid,0.04,tributylmethylammonium bis((trifluoromethyl)sulfonyl)imide,,,CCCC[N+](C)(CCCC)CCCC.O=S(=O)([N-]S(=O)(=O)C(F)(F)F)C(F)(F)F,tributylmethylammonium bis((trifluoromethyl)sulfonyl)imide,ABoVAt,CCO,ethanol,AAIsrh,CCCC[N+](C)(CCCC)CCCC,O=S(=O)([N-]S(=O)(=O)C(F)(F)F)C(F)(F)F,2,,,,2954,False,CCCC[N+](C)(CCCC)CCCC.O=S(=O)([N-]S(=O)(=O)C(F)(F)F)C(F)(F)F,No changes
hsQMK,308.15,100.0,880.0,Santos et al. (2017),Liquid,0.04,tributylmethylammonium bis((trifluoromethyl)sulfonyl)imide,,,CCCC[N+](C)(CCCC)CCCC.O=S(=O)([N-]S(=O)(=O)C(F)(F)F)C(F)(F)F,tributylmethylammonium bis((trifluoromethyl)sulfonyl)imide,ABoVAt,CCO,ethanol,AAIsrh,CCCC[N+](C)(CCCC)CCCC,O=S(=O)([N-]S(=O)(=O)C(F)(F)F)C(F)(F)F,2,,,,2955,False,CCCC[N+](C)(CCCC)CCCC.O=S(=O)([N-]S(=O)(=O)C(F)(F)F)C(F)(F)F,No changes
hsQMK,293.15,100.0,914.3,Santos et al. (2017),Liquid,0.05,tributylmethylammonium bis((trifluoromethyl)sulfonyl)imide,,,CCCC[N+](C)(CCCC)CCCC.O=S(=O)([N-]S(=O)(=O)C(F)(F)F)C(F)(F)F,tributylmethylammonium bis((trifluoromethyl)sulfonyl)imide,ABoVAt,CCO,ethanol,AAIsrh,CCCC[N+](C)(CCCC)CCCC,O=S(=O)([N-]S(=O)(=O)C(F)(F)F)C(F)(F)F,2,,,,2956,False,CCCC[N+](C)(CCCC)CCCC.O=S(=O)([N-]S(=O)(=O)C(F)(F)F)C(F)(F)F,No changes
hsQMK,298.15,100.0,910.0,Santos et al. (2017),Liquid,0.05,tributylmethylammonium bis((trifluoromethyl)sulfonyl)imide,,,CCCC[N+](C)(CCCC)CCCC.O=S(=O)([N-]S(=O)(=O)C(F)(F)F)C(F)(F)F,tributylmethylammonium bis((trifluoromethyl)sulfonyl)imide,ABoVAt,CCO,ethanol,AAIsrh,CCCC[N+](C)(CCCC)CCCC,O=S(=O)([N-]S(=O)(=O)C(F)(F)F)C(F)(F)F,2,,,,2957,False,CCCC[N+](C)(CCCC)CCCC.O=S(=O)([N-]S(=O)(=O)C(F)(F)F)C(F)(F)F,No changes
hsQMK,303.15,100.0,905.4,Santos et al. (2017),Liquid,0.05,tributylmethylammonium bis((trifluoromethyl)sulfonyl)imide,,,CCCC[N+](C)(CCCC)CCCC.O=S(=O)([N-]S(=O)(=O)C(F)(F)F)C(F)(F)F,tributylmethylammonium bis((trifluoromethyl)sulfonyl)imide,ABoVAt,CCO,ethanol,AAIsrh,CCCC[N+](C)(CCCC)CCCC,O=S(=O)([N-]S(=O)(=O)C(F)(F)F)C(F)(F)F,2,,,,2958,False,CCCC[N+](C)(CCCC)CCCC.O=S(=O)([N-]S(=O)(=O)C(F)(F)F)C(F)(F)F,No changes
hsQMK,308.15,100.0,899.7,Santos et al. (2017),Liquid,0.05,tributylmethylammonium bis((trifluoromethyl)sulfonyl)imide,,,CCCC[N+](C)(CCCC)CCCC.O=S(=O)([N-]S(=O)(=O)C(F)(F)F)C(F)(F)F,tributylmethylammonium bis((trifluoromethyl)sulfonyl)imide,ABoVAt,CCO,ethanol,AAIsrh,CCCC[N+](C)(CCCC)CCCC,O=S(=O)([N-]S(=O)(=O)C(F)(F)F)C(F)(F)F,2,,,,2959,False,CCCC[N+](C)(CCCC)CCCC.O=S(=O)([N-]S(=O)(=O)C(F)(F)F)C(F)(F)F,No changes
hsQMK,293.15,100.0,948.7,Santos et al. (2017),Liquid,0.07,tributylmethylammonium bis((trifluoromethyl)sulfonyl)imide,,,CCCC[N+](C)(CCCC)CCCC.O=S(=O)([N-]S(=O)(=O)C(F)(F)F)C(F)(F)F,tributylmethylammonium bis((trifluoromethyl)sulfonyl)imide,ABoVAt,CCO,ethanol,AAIsrh,CCCC[N+](C)(CCCC)CCCC,O=S(=O)([N-]S(=O)(=O)C(F)(F)F)C(F)(F)F,2,,,,2960,False,CCCC[N+](C)(CCCC)CCCC.O=S(=O)([N-]S(=O)(=O)C(F)(F)F)C(F)(F)F,No changes
hsQMK,298.15,100.0,944.2,Santos et al. (2017),Liquid,0.07,tributylmethylammonium bis((trifluoromethyl)sulfonyl)imide,,,CCCC[N+](C)(CCCC)CCCC.O=S(=O)([N-]S(=O)(=O)C(F)(F)F)C(F)(F)F,tributylmethylammonium bis((trifluoromethyl)sulfonyl)imide,ABoVAt,CCO,ethanol,AAIsrh,CCCC[N+](C)(CCCC)CCCC,O=S(=O)([N-]S(=O)(=O)C(F)(F)F)C(F)(F)F,2,,,,2961,False,CCCC[N+](C)(CCCC)CCCC.O=S(=O)([N-]S(=O)(=O)C(F)(F)F)C(F)(F)F,No changes
hsQMK,303.15,100.0,939.9,Santos et al. (2017),Liquid,0.07,tributylmethylammonium bis((trifluoromethyl)sulfonyl)imide,,,CCCC[N+](C)(CCCC)CCCC.O=S(=O)([N-]S(=O)(=O)C(F)(F)F)C(F)(F)F,tributylmethylammonium bis((trifluoromethyl)sulfonyl)imide,ABoVAt,CCO,ethanol,AAIsrh,CCCC[N+](C)(CCCC)CCCC,O=S(=O)([N-]S(=O)(=O)C(F)(F)F)C(F)(F)F,2,,,,2962,False,CCCC[N+](C)(CCCC)CCCC.O=S(=O)([N-]S(=O)(=O)C(F)(F)F)C(F)(F)F,No changes
hsQMK,308.15,100.0,935.0,Santos et al. (2017),Liquid,0.07,tributylmethylammonium bis((trifluoromethyl)sulfonyl)imide,,,CCCC[N+](C)(CCCC)CCCC.O=S(=O)([N-]S(=O)(=O)C(F)(F)F)C(F)(F)F,tributylmethylammonium bis((trifluoromethyl)sulfonyl)imide,ABoVAt,CCO,ethanol,AAIsrh,CCCC[N+](C)(CCCC)CCCC,O=S(=O)([N-]S(=O)(=O)C(F)(F)F)C(F)(F)F,2,,,,2963,False,CCCC[N+](C)(CCCC)CCCC.O=S(=O)([N-]S(=O)(=O)C(F)(F)F)C(F)(F)F,No changes
hsQMK,293.15,100.0,982.1,Santos et al. (2017),Liquid,0.0924,tributylmethylammonium bis((trifluoromethyl)sulfonyl)imide,,,CCCC[N+](C)(CCCC)CCCC.O=S(=O)([N-]S(=O)(=O)C(F)(F)F)C(F)(F)F,tributylmethylammonium bis((trifluoromethyl)sulfonyl)imide,ABoVAt,CCO,ethanol,AAIsrh,CCCC[N+](C)(CCCC)CCCC,O=S(=O)([N-]S(=O)(=O)C(F)(F)F)C(F)(F)F,2,,,,2964,False,CCCC[N+](C)(CCCC)CCCC.O=S(=O)([N-]S(=O)(=O)C(F)(F)F)C(F)(F)F,No changes
hsQMK,298.15,100.0,977.6,Santos et al. (2017),Liquid,0.0924,tributylmethylammonium bis((trifluoromethyl)sulfonyl)imide,,,CCCC[N+](C)(CCCC)CCCC.O=S(=O)([N-]S(=O)(=O)C(F)(F)F)C(F)(F)F,tributylmethylammonium bis((trifluoromethyl)sulfonyl)imide,ABoVAt,CCO,ethanol,AAIsrh,CCCC[N+](C)(CCCC)CCCC,O=S(=O)([N-]S(=O)(=O)C(F)(F)F)C(F)(F)F,2,,,,2965,False,CCCC[N+](C)(CCCC)CCCC.O=S(=O)([N-]S(=O)(=O)C(F)(F)F)C(F)(F)F,No changes
hsQMK,303.15,100.0,972.7,Santos et al. (2017),Liquid,0.0924,tributylmethylammonium bis((trifluoromethyl)sulfonyl)imide,,,CCCC[N+](C)(CCCC)CCCC.O=S(=O)([N-]S(=O)(=O)C(F)(F)F)C(F)(F)F,tributylmethylammonium bis((trifluoromethyl)sulfonyl)imide,ABoVAt,CCO,ethanol,AAIsrh,CCCC[N+](C)(CCCC)CCCC,O=S(=O)([N-]S(=O)(=O)C(F)(F)F)C(F)(F)F,2,,,,2966,False,CCCC[N+](C)(CCCC)CCCC.O=S(=O)([N-]S(=O)(=O)C(F)(F)F)C(F)(F)F,No changes
hsQMK,308.15,100.0,967.9,Santos et al. (2017),Liquid,0.0924,tributylmethylammonium bis((trifluoromethyl)sulfonyl)imide,,,CCCC[N+](C)(CCCC)CCCC.O=S(=O)([N-]S(=O)(=O)C(F)(F)F)C(F)(F)F,tributylmethylammonium bis((trifluoromethyl)sulfonyl)imide,ABoVAt,CCO,ethanol,AAIsrh,CCCC[N+](C)(CCCC)CCCC,O=S(=O)([N-]S(=O)(=O)C(F)(F)F)C(F)(F)F,2,,,,2967,False,CCCC[N+](C)(CCCC)CCCC.O=S(=O)([N-]S(=O)(=O)C(F)(F)F)C(F)(F)F,No changes
hsQMK,293.15,100.0,1036.0,Santos et al. (2017),Liquid,0.1395,tributylmethylammonium bis((trifluoromethyl)sulfonyl)imide,,,CCCC[N+](C)(CCCC)CCCC.O=S(=O)([N-]S(=O)(=O)C(F)(F)F)C(F)(F)F,tributylmethylammonium bis((trifluoromethyl)sulfonyl)imide,ABoVAt,CCO,ethanol,AAIsrh,CCCC[N+](C)(CCCC)CCCC,O=S(=O)([N-]S(=O)(=O)C(F)(F)F)C(F)(F)F,2,,,,2968,False,CCCC[N+](C)(CCCC)CCCC.O=S(=O)([N-]S(=O)(=O)C(F)(F)F)C(F)(F)F,No changes
hsQMK,298.15,100.0,1031.7,Santos et al. (2017),Liquid,0.1395,tributylmethylammonium bis((trifluoromethyl)sulfonyl)imide,,,CCCC[N+](C)(CCCC)CCCC.O=S(=O)([N-]S(=O)(=O)C(F)(F)F)C(F)(F)F,tributylmethylammonium bis((trifluoromethyl)sulfonyl)imide,ABoVAt,CCO,ethanol,AAIsrh,CCCC[N+](C)(CCCC)CCCC,O=S(=O)([N-]S(=O)(=O)C(F)(F)F)C(F)(F)F,2,,,,2969,False,CCCC[N+](C)(CCCC)CCCC.O=S(=O)([N-]S(=O)(=O)C(F)(F)F)C(F)(F)F,No changes
hsQMK,303.15,100.0,1027.2,Santos et al. (2017),Liquid,0.1395,tributylmethylammonium bis((trifluoromethyl)sulfonyl)imide,,,CCCC[N+](C)(CCCC)CCCC.O=S(=O)([N-]S(=O)(=O)C(F)(F)F)C(F)(F)F,tributylmethylammonium bis((trifluoromethyl)sulfonyl)imide,ABoVAt,CCO,ethanol,AAIsrh,CCCC[N+](C)(CCCC)CCCC,O=S(=O)([N-]S(=O)(=O)C(F)(F)F)C(F)(F)F,2,,,,2970,False,CCCC[N+](C)(CCCC)CCCC.O=S(=O)([N-]S(=O)(=O)C(F)(F)F)C(F)(F)F,No changes
hsQMK,308.15,100.0,1023.0,Santos et al. (2017),Liquid,0.1395,tributylmethylammonium bis((trifluoromethyl)sulfonyl)imide,,,CCCC[N+](C)(CCCC)CCCC.O=S(=O)([N-]S(=O)(=O)C(F)(F)F)C(F)(F)F,tributylmethylammonium bis((trifluoromethyl)sulfonyl)imide,ABoVAt,CCO,ethanol,AAIsrh,CCCC[N+](C)(CCCC)CCCC,O=S(=O)([N-]S(=O)(=O)C(F)(F)F)C(F)(F)F,2,,,,2971,False,CCCC[N+](C)(CCCC)CCCC.O=S(=O)([N-]S(=O)(=O)C(F)(F)F)C(F)(F)F,No changes
hsQMK,293.15,100.0,1078.0,Santos et al. (2017),Liquid,0.1882,tributylmethylammonium bis((trifluoromethyl)sulfonyl)imide,,,CCCC[N+](C)(CCCC)CCCC.O=S(=O)([N-]S(=O)(=O)C(F)(F)F)C(F)(F)F,tributylmethylammonium bis((trifluoromethyl)sulfonyl)imide,ABoVAt,CCO,ethanol,AAIsrh,CCCC[N+](C)(CCCC)CCCC,O=S(=O)([N-]S(=O)(=O)C(F)(F)F)C(F)(F)F,2,,,,2972,False,CCCC[N+](C)(CCCC)CCCC.O=S(=O)([N-]S(=O)(=O)C(F)(F)F)C(F)(F)F,No changes
hsQMK,298.15,100.0,1073.7,Santos et al. (2017),Liquid,0.1882,tributylmethylammonium bis((trifluoromethyl)sulfonyl)imide,,,CCCC[N+](C)(CCCC)CCCC.O=S(=O)([N-]S(=O)(=O)C(F)(F)F)C(F)(F)F,tributylmethylammonium bis((trifluoromethyl)sulfonyl)imide,ABoVAt,CCO,ethanol,AAIsrh,CCCC[N+](C)(CCCC)CCCC,O=S(=O)([N-]S(=O)(=O)C(F)(F)F)C(F)(F)F,2,,,,2973,False,CCCC[N+](C)(CCCC)CCCC.O=S(=O)([N-]S(=O)(=O)C(F)(F)F)C(F)(F)F,No changes
hsQMK,303.15,100.0,1068.7,Santos et al. (2017),Liquid,0.1882,tributylmethylammonium bis((trifluoromethyl)sulfonyl)imide,,,CCCC[N+](C)(CCCC)CCCC.O=S(=O)([N-]S(=O)(=O)C(F)(F)F)C(F)(F)F,tributylmethylammonium bis((trifluoromethyl)sulfonyl)imide,ABoVAt,CCO,ethanol,AAIsrh,CCCC[N+](C)(CCCC)CCCC,O=S(=O)([N-]S(=O)(=O)C(F)(F)F)C(F)(F)F,2,,,,2974,False,CCCC[N+](C)(CCCC)CCCC.O=S(=O)([N-]S(=O)(=O)C(F)(F)F)C(F)(F)F,No changes
hsQMK,308.15,100.0,1063.9,Santos et al. (2017),Liquid,0.1882,tributylmethylammonium bis((trifluoromethyl)sulfonyl)imide,,,CCCC[N+](C)(CCCC)CCCC.O=S(=O)([N-]S(=O)(=O)C(F)(F)F)C(F)(F)F,tributylmethylammonium bis((trifluoromethyl)sulfonyl)imide,ABoVAt,CCO,ethanol,AAIsrh,CCCC[N+](C)(CCCC)CCCC,O=S(=O)([N-]S(=O)(=O)C(F)(F)F)C(F)(F)F,2,,,,2975,False,CCCC[N+](C)(CCCC)CCCC.O=S(=O)([N-]S(=O)(=O)C(F)(F)F)C(F)(F)F,No changes