setid,Temperature (K),Pressure (kPa),Density (kg/m3),reference,phases,Mole fraction,Mole fraction of compound name,Weight fraction,Weight fraction of compound name,IL_SMILES,IL_name,IL_ID,Solvent_SMILES,Solvent_name,Solvent_ID,IL_cation_SMILES,IL_anion_SMILES,IL_component_number,Mole fraction of solvent,IL_MW,Solvent_MW,Record_ID,Contains_Metal,Standardized_IL_SMILES,Changes
KLxie,308.15,101.0,1353.0,Garcia-Miaja et al. (2008),Liquid,0.8784,1-ethyl-3-methylimidazolium trifluoromethanesulfonate,,,CC[n+]1ccn(C)c1.O=S(=O)([O-])C(F)(F)F,1-ethyl-3-methylimidazolium trifluoromethanesulfonate,AAyCVz,CCO,ethanol,AAIsrh,CC[n+]1ccn(C)c1,O=S(=O)([O-])C(F)(F)F,2,,,,2003,False,CC[n+]1ccn(C)c1.O=S(=O)([O-])C(F)(F)F,No changes
KLxie,313.15,101.0,1348.8,Garcia-Miaja et al. (2008),Liquid,0.8784,1-ethyl-3-methylimidazolium trifluoromethanesulfonate,,,CC[n+]1ccn(C)c1.O=S(=O)([O-])C(F)(F)F,1-ethyl-3-methylimidazolium trifluoromethanesulfonate,AAyCVz,CCO,ethanol,AAIsrh,CC[n+]1ccn(C)c1,O=S(=O)([O-])C(F)(F)F,2,,,,2004,False,CC[n+]1ccn(C)c1.O=S(=O)([O-])C(F)(F)F,No changes
KLxie,318.15,101.0,1344.7,Garcia-Miaja et al. (2008),Liquid,0.8784,1-ethyl-3-methylimidazolium trifluoromethanesulfonate,,,CC[n+]1ccn(C)c1.O=S(=O)([O-])C(F)(F)F,1-ethyl-3-methylimidazolium trifluoromethanesulfonate,AAyCVz,CCO,ethanol,AAIsrh,CC[n+]1ccn(C)c1,O=S(=O)([O-])C(F)(F)F,2,,,,2005,False,CC[n+]1ccn(C)c1.O=S(=O)([O-])C(F)(F)F,No changes
ENUcf,293.15,100.0,1355.0,Otero-Mato et al. (2022),Liquid,0.045760198338339,,0.1986,ethanol,CC[n+]1ccn(C)c1.[I-],1-ethyl-3-methylimidazolium iodide,AAtodn,CCO,ethanol,AAIsrh,CC[n+]1ccn(C)c1,[I-],2,,238.072,46.069,2006,False,CC[n+]1ccn(C)c1.[I-],No changes
ENUcf,293.15,100.0,1248.0,Otero-Mato et al. (2022),Liquid,0.076547565586825,,0.2999,ethanol,CC[n+]1ccn(C)c1.[I-],1-ethyl-3-methylimidazolium iodide,AAtodn,CCO,ethanol,AAIsrh,CC[n+]1ccn(C)c1,[I-],2,,238.072,46.069,2007,False,CC[n+]1ccn(C)c1.[I-],No changes
ENUcf,293.15,100.0,1153.0,Otero-Mato et al. (2022),Liquid,0.1124191312623058,,0.3956,ethanol,CC[n+]1ccn(C)c1.[I-],1-ethyl-3-methylimidazolium iodide,AAtodn,CCO,ethanol,AAIsrh,CC[n+]1ccn(C)c1,[I-],2,,238.072,46.069,2008,False,CC[n+]1ccn(C)c1.[I-],No changes
ENUcf,293.15,100.0,1071.0,Otero-Mato et al. (2022),Liquid,0.1621342924815496,,0.5,ethanol,CC[n+]1ccn(C)c1.[I-],1-ethyl-3-methylimidazolium iodide,AAtodn,CCO,ethanol,AAIsrh,CC[n+]1ccn(C)c1,[I-],2,,238.072,46.069,2009,False,CC[n+]1ccn(C)c1.[I-],No changes
ENUcf,293.15,100.0,997.0,Otero-Mato et al. (2022),Liquid,0.2252550045059914,,0.6004,ethanol,CC[n+]1ccn(C)c1.[I-],1-ethyl-3-methylimidazolium iodide,AAtodn,CCO,ethanol,AAIsrh,CC[n+]1ccn(C)c1,[I-],2,,238.072,46.069,2010,False,CC[n+]1ccn(C)c1.[I-],No changes
ENUcf,293.15,100.0,929.0,Otero-Mato et al. (2022),Liquid,0.3108631229465927,,0.6998,ethanol,CC[n+]1ccn(C)c1.[I-],1-ethyl-3-methylimidazolium iodide,AAtodn,CCO,ethanol,AAIsrh,CC[n+]1ccn(C)c1,[I-],2,,238.072,46.069,2011,False,CC[n+]1ccn(C)c1.[I-],No changes
ENUcf,293.15,100.0,883.0,Otero-Mato et al. (2022),Liquid,0.4278133377217075,,0.7944,ethanol,CC[n+]1ccn(C)c1.[I-],1-ethyl-3-methylimidazolium iodide,AAtodn,CCO,ethanol,AAIsrh,CC[n+]1ccn(C)c1,[I-],2,,238.072,46.069,2012,False,CC[n+]1ccn(C)c1.[I-],No changes
ENUcf,293.15,100.0,831.0,Otero-Mato et al. (2022),Liquid,0.6383469753954805,,0.9012,ethanol,CC[n+]1ccn(C)c1.[I-],1-ethyl-3-methylimidazolium iodide,AAtodn,CCO,ethanol,AAIsrh,CC[n+]1ccn(C)c1,[I-],2,,238.072,46.069,2013,False,CC[n+]1ccn(C)c1.[I-],No changes
ENUcf,293.15,100.0,808.0,Otero-Mato et al. (2022),Liquid,0.7815921717096774,,0.9487,ethanol,CC[n+]1ccn(C)c1.[I-],1-ethyl-3-methylimidazolium iodide,AAtodn,CCO,ethanol,AAIsrh,CC[n+]1ccn(C)c1,[I-],2,,238.072,46.069,2014,False,CC[n+]1ccn(C)c1.[I-],No changes
ENUcf,293.15,100.0,789.0,Otero-Mato et al. (2022),Liquid,1.0,,1.0,ethanol,CC[n+]1ccn(C)c1.[I-],1-ethyl-3-methylimidazolium iodide,AAtodn,CCO,ethanol,AAIsrh,CC[n+]1ccn(C)c1,[I-],2,,238.072,46.069,2015,False,CC[n+]1ccn(C)c1.[I-],No changes
JSZmg,293.15,100.0,864.0,Belic et al. (2017),Liquid,0.0508,1-butyl-3-ethylimidazolium bromide,,,CCCC[n+]1ccn(CC)c1.[Br-],1-butyl-3-ethylimidazolium bromide,AAsrvt,CCO,ethanol,AAIsrh,CCCC[n+]1ccn(CC)c1,[Br-],2,,,,2016,False,CCCC[n+]1ccn(CC)c1.[Br-],No changes
JSZmg,293.15,100.0,917.4,Belic et al. (2017),Liquid,0.0973,1-butyl-3-ethylimidazolium bromide,,,CCCC[n+]1ccn(CC)c1.[Br-],1-butyl-3-ethylimidazolium bromide,AAsrvt,CCO,ethanol,AAIsrh,CCCC[n+]1ccn(CC)c1,[Br-],2,,,,2017,False,CCCC[n+]1ccn(CC)c1.[Br-],No changes
JSZmg,293.15,100.0,1007.5,Belic et al. (2017),Liquid,0.2004,1-butyl-3-ethylimidazolium bromide,,,CCCC[n+]1ccn(CC)c1.[Br-],1-butyl-3-ethylimidazolium bromide,AAsrvt,CCO,ethanol,AAIsrh,CCCC[n+]1ccn(CC)c1,[Br-],2,,,,2018,False,CCCC[n+]1ccn(CC)c1.[Br-],No changes
JSZmg,293.15,100.0,1071.4,Belic et al. (2017),Liquid,0.3021,1-butyl-3-ethylimidazolium bromide,,,CCCC[n+]1ccn(CC)c1.[Br-],1-butyl-3-ethylimidazolium bromide,AAsrvt,CCO,ethanol,AAIsrh,CCCC[n+]1ccn(CC)c1,[Br-],2,,,,2019,False,CCCC[n+]1ccn(CC)c1.[Br-],No changes
JSZmg,293.15,100.0,1118.8,Belic et al. (2017),Liquid,0.401,1-butyl-3-ethylimidazolium bromide,,,CCCC[n+]1ccn(CC)c1.[Br-],1-butyl-3-ethylimidazolium bromide,AAsrvt,CCO,ethanol,AAIsrh,CCCC[n+]1ccn(CC)c1,[Br-],2,,,,2020,False,CCCC[n+]1ccn(CC)c1.[Br-],No changes
JSZmg,293.15,100.0,1156.1,Belic et al. (2017),Liquid,0.5005,1-butyl-3-ethylimidazolium bromide,,,CCCC[n+]1ccn(CC)c1.[Br-],1-butyl-3-ethylimidazolium bromide,AAsrvt,CCO,ethanol,AAIsrh,CCCC[n+]1ccn(CC)c1,[Br-],2,,,,2021,False,CCCC[n+]1ccn(CC)c1.[Br-],No changes
JSZmg,293.15,100.0,1186.1,Belic et al. (2017),Liquid,0.5996,1-butyl-3-ethylimidazolium bromide,,,CCCC[n+]1ccn(CC)c1.[Br-],1-butyl-3-ethylimidazolium bromide,AAsrvt,CCO,ethanol,AAIsrh,CCCC[n+]1ccn(CC)c1,[Br-],2,,,,2022,False,CCCC[n+]1ccn(CC)c1.[Br-],No changes
JSZmg,293.15,100.0,1211.2,Belic et al. (2017),Liquid,0.7022,1-butyl-3-ethylimidazolium bromide,,,CCCC[n+]1ccn(CC)c1.[Br-],1-butyl-3-ethylimidazolium bromide,AAsrvt,CCO,ethanol,AAIsrh,CCCC[n+]1ccn(CC)c1,[Br-],2,,,,2023,False,CCCC[n+]1ccn(CC)c1.[Br-],No changes
JSZmg,293.15,100.0,1231.3,Belic et al. (2017),Liquid,0.7998,1-butyl-3-ethylimidazolium bromide,,,CCCC[n+]1ccn(CC)c1.[Br-],1-butyl-3-ethylimidazolium bromide,AAsrvt,CCO,ethanol,AAIsrh,CCCC[n+]1ccn(CC)c1,[Br-],2,,,,2024,False,CCCC[n+]1ccn(CC)c1.[Br-],No changes
JSZmg,293.15,100.0,1251.5,Belic et al. (2017),Liquid,0.92,1-butyl-3-ethylimidazolium bromide,,,CCCC[n+]1ccn(CC)c1.[Br-],1-butyl-3-ethylimidazolium bromide,AAsrvt,CCO,ethanol,AAIsrh,CCCC[n+]1ccn(CC)c1,[Br-],2,,,,2025,False,CCCC[n+]1ccn(CC)c1.[Br-],No changes
JSZmg,298.15,100.0,859.8,Belic et al. (2017),Liquid,0.0508,1-butyl-3-ethylimidazolium bromide,,,CCCC[n+]1ccn(CC)c1.[Br-],1-butyl-3-ethylimidazolium bromide,AAsrvt,CCO,ethanol,AAIsrh,CCCC[n+]1ccn(CC)c1,[Br-],2,,,,2026,False,CCCC[n+]1ccn(CC)c1.[Br-],No changes
JSZmg,298.15,100.0,913.3,Belic et al. (2017),Liquid,0.0973,1-butyl-3-ethylimidazolium bromide,,,CCCC[n+]1ccn(CC)c1.[Br-],1-butyl-3-ethylimidazolium bromide,AAsrvt,CCO,ethanol,AAIsrh,CCCC[n+]1ccn(CC)c1,[Br-],2,,,,2027,False,CCCC[n+]1ccn(CC)c1.[Br-],No changes
JSZmg,298.15,100.0,1003.6,Belic et al. (2017),Liquid,0.2004,1-butyl-3-ethylimidazolium bromide,,,CCCC[n+]1ccn(CC)c1.[Br-],1-butyl-3-ethylimidazolium bromide,AAsrvt,CCO,ethanol,AAIsrh,CCCC[n+]1ccn(CC)c1,[Br-],2,,,,2028,False,CCCC[n+]1ccn(CC)c1.[Br-],No changes
JSZmg,298.15,100.0,1067.6,Belic et al. (2017),Liquid,0.3021,1-butyl-3-ethylimidazolium bromide,,,CCCC[n+]1ccn(CC)c1.[Br-],1-butyl-3-ethylimidazolium bromide,AAsrvt,CCO,ethanol,AAIsrh,CCCC[n+]1ccn(CC)c1,[Br-],2,,,,2029,False,CCCC[n+]1ccn(CC)c1.[Br-],No changes
JSZmg,298.15,100.0,1115.0,Belic et al. (2017),Liquid,0.401,1-butyl-3-ethylimidazolium bromide,,,CCCC[n+]1ccn(CC)c1.[Br-],1-butyl-3-ethylimidazolium bromide,AAsrvt,CCO,ethanol,AAIsrh,CCCC[n+]1ccn(CC)c1,[Br-],2,,,,2030,False,CCCC[n+]1ccn(CC)c1.[Br-],No changes
JSZmg,298.15,100.0,1152.5,Belic et al. (2017),Liquid,0.5005,1-butyl-3-ethylimidazolium bromide,,,CCCC[n+]1ccn(CC)c1.[Br-],1-butyl-3-ethylimidazolium bromide,AAsrvt,CCO,ethanol,AAIsrh,CCCC[n+]1ccn(CC)c1,[Br-],2,,,,2031,False,CCCC[n+]1ccn(CC)c1.[Br-],No changes
JSZmg,298.15,100.0,1182.4,Belic et al. (2017),Liquid,0.5996,1-butyl-3-ethylimidazolium bromide,,,CCCC[n+]1ccn(CC)c1.[Br-],1-butyl-3-ethylimidazolium bromide,AAsrvt,CCO,ethanol,AAIsrh,CCCC[n+]1ccn(CC)c1,[Br-],2,,,,2032,False,CCCC[n+]1ccn(CC)c1.[Br-],No changes
JSZmg,298.15,100.0,1207.7,Belic et al. (2017),Liquid,0.7022,1-butyl-3-ethylimidazolium bromide,,,CCCC[n+]1ccn(CC)c1.[Br-],1-butyl-3-ethylimidazolium bromide,AAsrvt,CCO,ethanol,AAIsrh,CCCC[n+]1ccn(CC)c1,[Br-],2,,,,2033,False,CCCC[n+]1ccn(CC)c1.[Br-],No changes
JSZmg,298.15,100.0,1227.8,Belic et al. (2017),Liquid,0.7998,1-butyl-3-ethylimidazolium bromide,,,CCCC[n+]1ccn(CC)c1.[Br-],1-butyl-3-ethylimidazolium bromide,AAsrvt,CCO,ethanol,AAIsrh,CCCC[n+]1ccn(CC)c1,[Br-],2,,,,2034,False,CCCC[n+]1ccn(CC)c1.[Br-],No changes
JSZmg,298.15,100.0,1247.8,Belic et al. (2017),Liquid,0.92,1-butyl-3-ethylimidazolium bromide,,,CCCC[n+]1ccn(CC)c1.[Br-],1-butyl-3-ethylimidazolium bromide,AAsrvt,CCO,ethanol,AAIsrh,CCCC[n+]1ccn(CC)c1,[Br-],2,,,,2035,False,CCCC[n+]1ccn(CC)c1.[Br-],No changes
JSZmg,303.15,100.0,855.6,Belic et al. (2017),Liquid,0.0508,1-butyl-3-ethylimidazolium bromide,,,CCCC[n+]1ccn(CC)c1.[Br-],1-butyl-3-ethylimidazolium bromide,AAsrvt,CCO,ethanol,AAIsrh,CCCC[n+]1ccn(CC)c1,[Br-],2,,,,2036,False,CCCC[n+]1ccn(CC)c1.[Br-],No changes
JSZmg,303.15,100.0,909.2,Belic et al. (2017),Liquid,0.0973,1-butyl-3-ethylimidazolium bromide,,,CCCC[n+]1ccn(CC)c1.[Br-],1-butyl-3-ethylimidazolium bromide,AAsrvt,CCO,ethanol,AAIsrh,CCCC[n+]1ccn(CC)c1,[Br-],2,,,,2037,False,CCCC[n+]1ccn(CC)c1.[Br-],No changes
JSZmg,303.15,100.0,999.7,Belic et al. (2017),Liquid,0.2004,1-butyl-3-ethylimidazolium bromide,,,CCCC[n+]1ccn(CC)c1.[Br-],1-butyl-3-ethylimidazolium bromide,AAsrvt,CCO,ethanol,AAIsrh,CCCC[n+]1ccn(CC)c1,[Br-],2,,,,2038,False,CCCC[n+]1ccn(CC)c1.[Br-],No changes
JSZmg,303.15,100.0,1063.8,Belic et al. (2017),Liquid,0.3021,1-butyl-3-ethylimidazolium bromide,,,CCCC[n+]1ccn(CC)c1.[Br-],1-butyl-3-ethylimidazolium bromide,AAsrvt,CCO,ethanol,AAIsrh,CCCC[n+]1ccn(CC)c1,[Br-],2,,,,2039,False,CCCC[n+]1ccn(CC)c1.[Br-],No changes
JSZmg,303.15,100.0,1111.3,Belic et al. (2017),Liquid,0.401,1-butyl-3-ethylimidazolium bromide,,,CCCC[n+]1ccn(CC)c1.[Br-],1-butyl-3-ethylimidazolium bromide,AAsrvt,CCO,ethanol,AAIsrh,CCCC[n+]1ccn(CC)c1,[Br-],2,,,,2040,False,CCCC[n+]1ccn(CC)c1.[Br-],No changes
JSZmg,303.15,100.0,1148.9,Belic et al. (2017),Liquid,0.5005,1-butyl-3-ethylimidazolium bromide,,,CCCC[n+]1ccn(CC)c1.[Br-],1-butyl-3-ethylimidazolium bromide,AAsrvt,CCO,ethanol,AAIsrh,CCCC[n+]1ccn(CC)c1,[Br-],2,,,,2041,False,CCCC[n+]1ccn(CC)c1.[Br-],No changes
JSZmg,303.15,100.0,1178.8,Belic et al. (2017),Liquid,0.5996,1-butyl-3-ethylimidazolium bromide,,,CCCC[n+]1ccn(CC)c1.[Br-],1-butyl-3-ethylimidazolium bromide,AAsrvt,CCO,ethanol,AAIsrh,CCCC[n+]1ccn(CC)c1,[Br-],2,,,,2042,False,CCCC[n+]1ccn(CC)c1.[Br-],No changes
JSZmg,303.15,100.0,1204.1,Belic et al. (2017),Liquid,0.7022,1-butyl-3-ethylimidazolium bromide,,,CCCC[n+]1ccn(CC)c1.[Br-],1-butyl-3-ethylimidazolium bromide,AAsrvt,CCO,ethanol,AAIsrh,CCCC[n+]1ccn(CC)c1,[Br-],2,,,,2043,False,CCCC[n+]1ccn(CC)c1.[Br-],No changes
JSZmg,303.15,100.0,1224.2,Belic et al. (2017),Liquid,0.7998,1-butyl-3-ethylimidazolium bromide,,,CCCC[n+]1ccn(CC)c1.[Br-],1-butyl-3-ethylimidazolium bromide,AAsrvt,CCO,ethanol,AAIsrh,CCCC[n+]1ccn(CC)c1,[Br-],2,,,,2044,False,CCCC[n+]1ccn(CC)c1.[Br-],No changes
JSZmg,303.15,100.0,1244.3,Belic et al. (2017),Liquid,0.92,1-butyl-3-ethylimidazolium bromide,,,CCCC[n+]1ccn(CC)c1.[Br-],1-butyl-3-ethylimidazolium bromide,AAsrvt,CCO,ethanol,AAIsrh,CCCC[n+]1ccn(CC)c1,[Br-],2,,,,2045,False,CCCC[n+]1ccn(CC)c1.[Br-],No changes
JSZmg,308.15,100.0,851.4,Belic et al. (2017),Liquid,0.0508,1-butyl-3-ethylimidazolium bromide,,,CCCC[n+]1ccn(CC)c1.[Br-],1-butyl-3-ethylimidazolium bromide,AAsrvt,CCO,ethanol,AAIsrh,CCCC[n+]1ccn(CC)c1,[Br-],2,,,,2046,False,CCCC[n+]1ccn(CC)c1.[Br-],No changes
JSZmg,308.15,100.0,905.0,Belic et al. (2017),Liquid,0.0973,1-butyl-3-ethylimidazolium bromide,,,CCCC[n+]1ccn(CC)c1.[Br-],1-butyl-3-ethylimidazolium bromide,AAsrvt,CCO,ethanol,AAIsrh,CCCC[n+]1ccn(CC)c1,[Br-],2,,,,2047,False,CCCC[n+]1ccn(CC)c1.[Br-],No changes
JSZmg,308.15,100.0,995.7,Belic et al. (2017),Liquid,0.2004,1-butyl-3-ethylimidazolium bromide,,,CCCC[n+]1ccn(CC)c1.[Br-],1-butyl-3-ethylimidazolium bromide,AAsrvt,CCO,ethanol,AAIsrh,CCCC[n+]1ccn(CC)c1,[Br-],2,,,,2048,False,CCCC[n+]1ccn(CC)c1.[Br-],No changes
JSZmg,308.15,100.0,1059.9,Belic et al. (2017),Liquid,0.3021,1-butyl-3-ethylimidazolium bromide,,,CCCC[n+]1ccn(CC)c1.[Br-],1-butyl-3-ethylimidazolium bromide,AAsrvt,CCO,ethanol,AAIsrh,CCCC[n+]1ccn(CC)c1,[Br-],2,,,,2049,False,CCCC[n+]1ccn(CC)c1.[Br-],No changes
JSZmg,308.15,100.0,1107.6,Belic et al. (2017),Liquid,0.401,1-butyl-3-ethylimidazolium bromide,,,CCCC[n+]1ccn(CC)c1.[Br-],1-butyl-3-ethylimidazolium bromide,AAsrvt,CCO,ethanol,AAIsrh,CCCC[n+]1ccn(CC)c1,[Br-],2,,,,2050,False,CCCC[n+]1ccn(CC)c1.[Br-],No changes
JSZmg,308.15,100.0,1145.2,Belic et al. (2017),Liquid,0.5005,1-butyl-3-ethylimidazolium bromide,,,CCCC[n+]1ccn(CC)c1.[Br-],1-butyl-3-ethylimidazolium bromide,AAsrvt,CCO,ethanol,AAIsrh,CCCC[n+]1ccn(CC)c1,[Br-],2,,,,2051,False,CCCC[n+]1ccn(CC)c1.[Br-],No changes
JSZmg,308.15,100.0,1175.2,Belic et al. (2017),Liquid,0.5996,1-butyl-3-ethylimidazolium bromide,,,CCCC[n+]1ccn(CC)c1.[Br-],1-butyl-3-ethylimidazolium bromide,AAsrvt,CCO,ethanol,AAIsrh,CCCC[n+]1ccn(CC)c1,[Br-],2,,,,2052,False,CCCC[n+]1ccn(CC)c1.[Br-],No changes
JSZmg,308.15,100.0,1200.5,Belic et al. (2017),Liquid,0.7022,1-butyl-3-ethylimidazolium bromide,,,CCCC[n+]1ccn(CC)c1.[Br-],1-butyl-3-ethylimidazolium bromide,AAsrvt,CCO,ethanol,AAIsrh,CCCC[n+]1ccn(CC)c1,[Br-],2,,,,2053,False,CCCC[n+]1ccn(CC)c1.[Br-],No changes
JSZmg,308.15,100.0,1220.6,Belic et al. (2017),Liquid,0.7998,1-butyl-3-ethylimidazolium bromide,,,CCCC[n+]1ccn(CC)c1.[Br-],1-butyl-3-ethylimidazolium bromide,AAsrvt,CCO,ethanol,AAIsrh,CCCC[n+]1ccn(CC)c1,[Br-],2,,,,2054,False,CCCC[n+]1ccn(CC)c1.[Br-],No changes
JSZmg,308.15,100.0,1240.8,Belic et al. (2017),Liquid,0.92,1-butyl-3-ethylimidazolium bromide,,,CCCC[n+]1ccn(CC)c1.[Br-],1-butyl-3-ethylimidazolium bromide,AAsrvt,CCO,ethanol,AAIsrh,CCCC[n+]1ccn(CC)c1,[Br-],2,,,,2055,False,CCCC[n+]1ccn(CC)c1.[Br-],No changes
JSZmg,313.15,100.0,847.0,Belic et al. (2017),Liquid,0.0508,1-butyl-3-ethylimidazolium bromide,,,CCCC[n+]1ccn(CC)c1.[Br-],1-butyl-3-ethylimidazolium bromide,AAsrvt,CCO,ethanol,AAIsrh,CCCC[n+]1ccn(CC)c1,[Br-],2,,,,2056,False,CCCC[n+]1ccn(CC)c1.[Br-],No changes
JSZmg,313.15,100.0,900.8,Belic et al. (2017),Liquid,0.0973,1-butyl-3-ethylimidazolium bromide,,,CCCC[n+]1ccn(CC)c1.[Br-],1-butyl-3-ethylimidazolium bromide,AAsrvt,CCO,ethanol,AAIsrh,CCCC[n+]1ccn(CC)c1,[Br-],2,,,,2057,False,CCCC[n+]1ccn(CC)c1.[Br-],No changes
JSZmg,313.15,100.0,991.6,Belic et al. (2017),Liquid,0.2004,1-butyl-3-ethylimidazolium bromide,,,CCCC[n+]1ccn(CC)c1.[Br-],1-butyl-3-ethylimidazolium bromide,AAsrvt,CCO,ethanol,AAIsrh,CCCC[n+]1ccn(CC)c1,[Br-],2,,,,2058,False,CCCC[n+]1ccn(CC)c1.[Br-],No changes
JSZmg,313.15,100.0,1056.0,Belic et al. (2017),Liquid,0.3021,1-butyl-3-ethylimidazolium bromide,,,CCCC[n+]1ccn(CC)c1.[Br-],1-butyl-3-ethylimidazolium bromide,AAsrvt,CCO,ethanol,AAIsrh,CCCC[n+]1ccn(CC)c1,[Br-],2,,,,2059,False,CCCC[n+]1ccn(CC)c1.[Br-],No changes
JSZmg,313.15,100.0,1103.8,Belic et al. (2017),Liquid,0.401,1-butyl-3-ethylimidazolium bromide,,,CCCC[n+]1ccn(CC)c1.[Br-],1-butyl-3-ethylimidazolium bromide,AAsrvt,CCO,ethanol,AAIsrh,CCCC[n+]1ccn(CC)c1,[Br-],2,,,,2060,False,CCCC[n+]1ccn(CC)c1.[Br-],No changes
JSZmg,313.15,100.0,1141.4,Belic et al. (2017),Liquid,0.5005,1-butyl-3-ethylimidazolium bromide,,,CCCC[n+]1ccn(CC)c1.[Br-],1-butyl-3-ethylimidazolium bromide,AAsrvt,CCO,ethanol,AAIsrh,CCCC[n+]1ccn(CC)c1,[Br-],2,,,,2061,False,CCCC[n+]1ccn(CC)c1.[Br-],No changes
JSZmg,313.15,100.0,1171.6,Belic et al. (2017),Liquid,0.5996,1-butyl-3-ethylimidazolium bromide,,,CCCC[n+]1ccn(CC)c1.[Br-],1-butyl-3-ethylimidazolium bromide,AAsrvt,CCO,ethanol,AAIsrh,CCCC[n+]1ccn(CC)c1,[Br-],2,,,,2062,False,CCCC[n+]1ccn(CC)c1.[Br-],No changes
JSZmg,313.15,100.0,1196.9,Belic et al. (2017),Liquid,0.7022,1-butyl-3-ethylimidazolium bromide,,,CCCC[n+]1ccn(CC)c1.[Br-],1-butyl-3-ethylimidazolium bromide,AAsrvt,CCO,ethanol,AAIsrh,CCCC[n+]1ccn(CC)c1,[Br-],2,,,,2063,False,CCCC[n+]1ccn(CC)c1.[Br-],No changes
JSZmg,313.15,100.0,1217.0,Belic et al. (2017),Liquid,0.7998,1-butyl-3-ethylimidazolium bromide,,,CCCC[n+]1ccn(CC)c1.[Br-],1-butyl-3-ethylimidazolium bromide,AAsrvt,CCO,ethanol,AAIsrh,CCCC[n+]1ccn(CC)c1,[Br-],2,,,,2064,False,CCCC[n+]1ccn(CC)c1.[Br-],No changes
JSZmg,313.15,100.0,1237.2,Belic et al. (2017),Liquid,0.92,1-butyl-3-ethylimidazolium bromide,,,CCCC[n+]1ccn(CC)c1.[Br-],1-butyl-3-ethylimidazolium bromide,AAsrvt,CCO,ethanol,AAIsrh,CCCC[n+]1ccn(CC)c1,[Br-],2,,,,2065,False,CCCC[n+]1ccn(CC)c1.[Br-],No changes
JSZmg,318.15,100.0,842.6,Belic et al. (2017),Liquid,0.0508,1-butyl-3-ethylimidazolium bromide,,,CCCC[n+]1ccn(CC)c1.[Br-],1-butyl-3-ethylimidazolium bromide,AAsrvt,CCO,ethanol,AAIsrh,CCCC[n+]1ccn(CC)c1,[Br-],2,,,,2066,False,CCCC[n+]1ccn(CC)c1.[Br-],No changes
JSZmg,318.15,100.0,896.5,Belic et al. (2017),Liquid,0.0973,1-butyl-3-ethylimidazolium bromide,,,CCCC[n+]1ccn(CC)c1.[Br-],1-butyl-3-ethylimidazolium bromide,AAsrvt,CCO,ethanol,AAIsrh,CCCC[n+]1ccn(CC)c1,[Br-],2,,,,2067,False,CCCC[n+]1ccn(CC)c1.[Br-],No changes
JSZmg,318.15,100.0,987.5,Belic et al. (2017),Liquid,0.2004,1-butyl-3-ethylimidazolium bromide,,,CCCC[n+]1ccn(CC)c1.[Br-],1-butyl-3-ethylimidazolium bromide,AAsrvt,CCO,ethanol,AAIsrh,CCCC[n+]1ccn(CC)c1,[Br-],2,,,,2068,False,CCCC[n+]1ccn(CC)c1.[Br-],No changes
JSZmg,318.15,100.0,1052.1,Belic et al. (2017),Liquid,0.3021,1-butyl-3-ethylimidazolium bromide,,,CCCC[n+]1ccn(CC)c1.[Br-],1-butyl-3-ethylimidazolium bromide,AAsrvt,CCO,ethanol,AAIsrh,CCCC[n+]1ccn(CC)c1,[Br-],2,,,,2069,False,CCCC[n+]1ccn(CC)c1.[Br-],No changes
JSZmg,318.15,100.0,1099.9,Belic et al. (2017),Liquid,0.401,1-butyl-3-ethylimidazolium bromide,,,CCCC[n+]1ccn(CC)c1.[Br-],1-butyl-3-ethylimidazolium bromide,AAsrvt,CCO,ethanol,AAIsrh,CCCC[n+]1ccn(CC)c1,[Br-],2,,,,2070,False,CCCC[n+]1ccn(CC)c1.[Br-],No changes
JSZmg,318.15,100.0,1137.6,Belic et al. (2017),Liquid,0.5005,1-butyl-3-ethylimidazolium bromide,,,CCCC[n+]1ccn(CC)c1.[Br-],1-butyl-3-ethylimidazolium bromide,AAsrvt,CCO,ethanol,AAIsrh,CCCC[n+]1ccn(CC)c1,[Br-],2,,,,2071,False,CCCC[n+]1ccn(CC)c1.[Br-],No changes
JSZmg,318.15,100.0,1168.0,Belic et al. (2017),Liquid,0.5996,1-butyl-3-ethylimidazolium bromide,,,CCCC[n+]1ccn(CC)c1.[Br-],1-butyl-3-ethylimidazolium bromide,AAsrvt,CCO,ethanol,AAIsrh,CCCC[n+]1ccn(CC)c1,[Br-],2,,,,2072,False,CCCC[n+]1ccn(CC)c1.[Br-],No changes
JSZmg,318.15,100.0,1193.3,Belic et al. (2017),Liquid,0.7022,1-butyl-3-ethylimidazolium bromide,,,CCCC[n+]1ccn(CC)c1.[Br-],1-butyl-3-ethylimidazolium bromide,AAsrvt,CCO,ethanol,AAIsrh,CCCC[n+]1ccn(CC)c1,[Br-],2,,,,2073,False,CCCC[n+]1ccn(CC)c1.[Br-],No changes
JSZmg,318.15,100.0,1213.3,Belic et al. (2017),Liquid,0.7998,1-butyl-3-ethylimidazolium bromide,,,CCCC[n+]1ccn(CC)c1.[Br-],1-butyl-3-ethylimidazolium bromide,AAsrvt,CCO,ethanol,AAIsrh,CCCC[n+]1ccn(CC)c1,[Br-],2,,,,2074,False,CCCC[n+]1ccn(CC)c1.[Br-],No changes
JSZmg,318.15,100.0,1233.6,Belic et al. (2017),Liquid,0.92,1-butyl-3-ethylimidazolium bromide,,,CCCC[n+]1ccn(CC)c1.[Br-],1-butyl-3-ethylimidazolium bromide,AAsrvt,CCO,ethanol,AAIsrh,CCCC[n+]1ccn(CC)c1,[Br-],2,,,,2075,False,CCCC[n+]1ccn(CC)c1.[Br-],No changes
JSZmg,323.15,100.0,838.0,Belic et al. (2017),Liquid,0.0508,1-butyl-3-ethylimidazolium bromide,,,CCCC[n+]1ccn(CC)c1.[Br-],1-butyl-3-ethylimidazolium bromide,AAsrvt,CCO,ethanol,AAIsrh,CCCC[n+]1ccn(CC)c1,[Br-],2,,,,2076,False,CCCC[n+]1ccn(CC)c1.[Br-],No changes