setid,Temperature (K),Pressure (kPa),Density (kg/m3),reference,phases,Mole fraction,Mole fraction of compound name,Weight fraction,Weight fraction of compound name,IL_SMILES,IL_name,IL_ID,Solvent_SMILES,Solvent_name,Solvent_ID,IL_cation_SMILES,IL_anion_SMILES,IL_component_number,Mole fraction of solvent,IL_MW,Solvent_MW,Record_ID,Contains_Metal,Standardized_IL_SMILES,Changes
xTuRO,313.15,100.0,1028.3,Wei et al. (2020a),Liquid,0.5003,1-ethyl-3-(2-methoxyethyl)imidazolium thiocyanate,,,CC[n+]1ccn(CCOC)c1.N#C[S-],1-ethyl-3-(2-methoxyethyl)imidazolium thiocyanate,AApAEZ,CC(C)O,propan-2-ol,AALcwx,CC[n+]1ccn(CCOC)c1,N#C[S-],2,,,,597,False,CC[n+]1ccn(CCOC)c1.N#C[S-],No changes
xTuRO,313.15,100.0,1054.4,Wei et al. (2020a),Liquid,0.6,1-ethyl-3-(2-methoxyethyl)imidazolium thiocyanate,,,CC[n+]1ccn(CCOC)c1.N#C[S-],1-ethyl-3-(2-methoxyethyl)imidazolium thiocyanate,AApAEZ,CC(C)O,propan-2-ol,AALcwx,CC[n+]1ccn(CCOC)c1,N#C[S-],2,,,,598,False,CC[n+]1ccn(CCOC)c1.N#C[S-],No changes
xTuRO,313.15,100.0,1075.1,Wei et al. (2020a),Liquid,0.697,1-ethyl-3-(2-methoxyethyl)imidazolium thiocyanate,,,CC[n+]1ccn(CCOC)c1.N#C[S-],1-ethyl-3-(2-methoxyethyl)imidazolium thiocyanate,AApAEZ,CC(C)O,propan-2-ol,AALcwx,CC[n+]1ccn(CCOC)c1,N#C[S-],2,,,,599,False,CC[n+]1ccn(CCOC)c1.N#C[S-],No changes
xTuRO,313.15,100.0,1093.7,Wei et al. (2020a),Liquid,0.8002,1-ethyl-3-(2-methoxyethyl)imidazolium thiocyanate,,,CC[n+]1ccn(CCOC)c1.N#C[S-],1-ethyl-3-(2-methoxyethyl)imidazolium thiocyanate,AApAEZ,CC(C)O,propan-2-ol,AALcwx,CC[n+]1ccn(CCOC)c1,N#C[S-],2,,,,600,False,CC[n+]1ccn(CCOC)c1.N#C[S-],No changes
xTuRO,313.15,100.0,1109.0,Wei et al. (2020a),Liquid,0.8991,1-ethyl-3-(2-methoxyethyl)imidazolium thiocyanate,,,CC[n+]1ccn(CCOC)c1.N#C[S-],1-ethyl-3-(2-methoxyethyl)imidazolium thiocyanate,AApAEZ,CC(C)O,propan-2-ol,AALcwx,CC[n+]1ccn(CCOC)c1,N#C[S-],2,,,,601,False,CC[n+]1ccn(CCOC)c1.N#C[S-],No changes
xTuRO,313.15,100.0,1123.3,Wei et al. (2020a),Liquid,1.0,1-ethyl-3-(2-methoxyethyl)imidazolium thiocyanate,,,CC[n+]1ccn(CCOC)c1.N#C[S-],1-ethyl-3-(2-methoxyethyl)imidazolium thiocyanate,AApAEZ,CC(C)O,propan-2-ol,AALcwx,CC[n+]1ccn(CCOC)c1,N#C[S-],2,,,,602,False,CC[n+]1ccn(CCOC)c1.N#C[S-],No changes
xTuRO,318.15,100.0,763.3,Wei et al. (2020a),Liquid,0.0,1-ethyl-3-(2-methoxyethyl)imidazolium thiocyanate,,,CC[n+]1ccn(CCOC)c1.N#C[S-],1-ethyl-3-(2-methoxyethyl)imidazolium thiocyanate,AApAEZ,CC(C)O,propan-2-ol,AALcwx,CC[n+]1ccn(CCOC)c1,N#C[S-],2,,,,603,False,CC[n+]1ccn(CCOC)c1.N#C[S-],No changes
xTuRO,318.15,100.0,846.0,Wei et al. (2020a),Liquid,0.1,1-ethyl-3-(2-methoxyethyl)imidazolium thiocyanate,,,CC[n+]1ccn(CCOC)c1.N#C[S-],1-ethyl-3-(2-methoxyethyl)imidazolium thiocyanate,AApAEZ,CC(C)O,propan-2-ol,AALcwx,CC[n+]1ccn(CCOC)c1,N#C[S-],2,,,,604,False,CC[n+]1ccn(CCOC)c1.N#C[S-],No changes
xTuRO,318.15,100.0,907.9,Wei et al. (2020a),Liquid,0.1998,1-ethyl-3-(2-methoxyethyl)imidazolium thiocyanate,,,CC[n+]1ccn(CCOC)c1.N#C[S-],1-ethyl-3-(2-methoxyethyl)imidazolium thiocyanate,AApAEZ,CC(C)O,propan-2-ol,AALcwx,CC[n+]1ccn(CCOC)c1,N#C[S-],2,,,,605,False,CC[n+]1ccn(CCOC)c1.N#C[S-],No changes
xTuRO,318.15,100.0,965.2,Wei et al. (2020a),Liquid,0.3234,1-ethyl-3-(2-methoxyethyl)imidazolium thiocyanate,,,CC[n+]1ccn(CCOC)c1.N#C[S-],1-ethyl-3-(2-methoxyethyl)imidazolium thiocyanate,AApAEZ,CC(C)O,propan-2-ol,AALcwx,CC[n+]1ccn(CCOC)c1,N#C[S-],2,,,,606,False,CC[n+]1ccn(CCOC)c1.N#C[S-],No changes
xTuRO,318.15,100.0,993.3,Wei et al. (2020a),Liquid,0.3998,1-ethyl-3-(2-methoxyethyl)imidazolium thiocyanate,,,CC[n+]1ccn(CCOC)c1.N#C[S-],1-ethyl-3-(2-methoxyethyl)imidazolium thiocyanate,AApAEZ,CC(C)O,propan-2-ol,AALcwx,CC[n+]1ccn(CCOC)c1,N#C[S-],2,,,,607,False,CC[n+]1ccn(CCOC)c1.N#C[S-],No changes
xTuRO,318.15,100.0,1025.0,Wei et al. (2020a),Liquid,0.5003,1-ethyl-3-(2-methoxyethyl)imidazolium thiocyanate,,,CC[n+]1ccn(CCOC)c1.N#C[S-],1-ethyl-3-(2-methoxyethyl)imidazolium thiocyanate,AApAEZ,CC(C)O,propan-2-ol,AALcwx,CC[n+]1ccn(CCOC)c1,N#C[S-],2,,,,608,False,CC[n+]1ccn(CCOC)c1.N#C[S-],No changes
xTuRO,318.15,100.0,1051.1,Wei et al. (2020a),Liquid,0.6,1-ethyl-3-(2-methoxyethyl)imidazolium thiocyanate,,,CC[n+]1ccn(CCOC)c1.N#C[S-],1-ethyl-3-(2-methoxyethyl)imidazolium thiocyanate,AApAEZ,CC(C)O,propan-2-ol,AALcwx,CC[n+]1ccn(CCOC)c1,N#C[S-],2,,,,609,False,CC[n+]1ccn(CCOC)c1.N#C[S-],No changes
xTuRO,318.15,100.0,1071.9,Wei et al. (2020a),Liquid,0.697,1-ethyl-3-(2-methoxyethyl)imidazolium thiocyanate,,,CC[n+]1ccn(CCOC)c1.N#C[S-],1-ethyl-3-(2-methoxyethyl)imidazolium thiocyanate,AApAEZ,CC(C)O,propan-2-ol,AALcwx,CC[n+]1ccn(CCOC)c1,N#C[S-],2,,,,610,False,CC[n+]1ccn(CCOC)c1.N#C[S-],No changes
xTuRO,318.15,100.0,1090.5,Wei et al. (2020a),Liquid,0.8002,1-ethyl-3-(2-methoxyethyl)imidazolium thiocyanate,,,CC[n+]1ccn(CCOC)c1.N#C[S-],1-ethyl-3-(2-methoxyethyl)imidazolium thiocyanate,AApAEZ,CC(C)O,propan-2-ol,AALcwx,CC[n+]1ccn(CCOC)c1,N#C[S-],2,,,,611,False,CC[n+]1ccn(CCOC)c1.N#C[S-],No changes
xTuRO,318.15,100.0,1105.8,Wei et al. (2020a),Liquid,0.8991,1-ethyl-3-(2-methoxyethyl)imidazolium thiocyanate,,,CC[n+]1ccn(CCOC)c1.N#C[S-],1-ethyl-3-(2-methoxyethyl)imidazolium thiocyanate,AApAEZ,CC(C)O,propan-2-ol,AALcwx,CC[n+]1ccn(CCOC)c1,N#C[S-],2,,,,612,False,CC[n+]1ccn(CCOC)c1.N#C[S-],No changes
xTuRO,318.15,100.0,1120.1,Wei et al. (2020a),Liquid,1.0,1-ethyl-3-(2-methoxyethyl)imidazolium thiocyanate,,,CC[n+]1ccn(CCOC)c1.N#C[S-],1-ethyl-3-(2-methoxyethyl)imidazolium thiocyanate,AApAEZ,CC(C)O,propan-2-ol,AALcwx,CC[n+]1ccn(CCOC)c1,N#C[S-],2,,,,613,False,CC[n+]1ccn(CCOC)c1.N#C[S-],No changes
mjUzy,293.15,101.0,785.4,Sarkoohaki et al. (2020),Liquid,0.0,1-butyl-3-methylimidazolium tetrafluoroborate,,,CCCC[n+]1ccn(C)c1.F[B-](F)(F)F,1-butyl-3-methylimidazolium tetrafluoroborate,AArYBF,CC(C)O,propan-2-ol,AALcwx,CCCC[n+]1ccn(C)c1,F[B-](F)(F)F,2,,,,614,False,CCCC[n+]1ccn(C)c1.F[B-](F)(F)F,No changes
mjUzy,293.15,101.0,869.3,Sarkoohaki et al. (2020),Liquid,0.0804,1-butyl-3-methylimidazolium tetrafluoroborate,,,CCCC[n+]1ccn(C)c1.F[B-](F)(F)F,1-butyl-3-methylimidazolium tetrafluoroborate,AArYBF,CC(C)O,propan-2-ol,AALcwx,CCCC[n+]1ccn(C)c1,F[B-](F)(F)F,2,,,,615,False,CCCC[n+]1ccn(C)c1.F[B-](F)(F)F,No changes
mjUzy,293.15,101.0,929.9,Sarkoohaki et al. (2020),Liquid,0.1585,1-butyl-3-methylimidazolium tetrafluoroborate,,,CCCC[n+]1ccn(C)c1.F[B-](F)(F)F,1-butyl-3-methylimidazolium tetrafluoroborate,AArYBF,CC(C)O,propan-2-ol,AALcwx,CCCC[n+]1ccn(C)c1,F[B-](F)(F)F,2,,,,616,False,CCCC[n+]1ccn(C)c1.F[B-](F)(F)F,No changes
mjUzy,293.15,101.0,979.8,Sarkoohaki et al. (2020),Liquid,0.2402,1-butyl-3-methylimidazolium tetrafluoroborate,,,CCCC[n+]1ccn(C)c1.F[B-](F)(F)F,1-butyl-3-methylimidazolium tetrafluoroborate,AArYBF,CC(C)O,propan-2-ol,AALcwx,CCCC[n+]1ccn(C)c1,F[B-](F)(F)F,2,,,,617,False,CCCC[n+]1ccn(C)c1.F[B-](F)(F)F,No changes
mjUzy,293.15,101.0,1033.2,Sarkoohaki et al. (2020),Liquid,0.3505,1-butyl-3-methylimidazolium tetrafluoroborate,,,CCCC[n+]1ccn(C)c1.F[B-](F)(F)F,1-butyl-3-methylimidazolium tetrafluoroborate,AArYBF,CC(C)O,propan-2-ol,AALcwx,CCCC[n+]1ccn(C)c1,F[B-](F)(F)F,2,,,,618,False,CCCC[n+]1ccn(C)c1.F[B-](F)(F)F,No changes
mjUzy,293.15,101.0,1069.3,Sarkoohaki et al. (2020),Liquid,0.4422,1-butyl-3-methylimidazolium tetrafluoroborate,,,CCCC[n+]1ccn(C)c1.F[B-](F)(F)F,1-butyl-3-methylimidazolium tetrafluoroborate,AArYBF,CC(C)O,propan-2-ol,AALcwx,CCCC[n+]1ccn(C)c1,F[B-](F)(F)F,2,,,,619,False,CCCC[n+]1ccn(C)c1.F[B-](F)(F)F,No changes
mjUzy,293.15,101.0,1108.1,Sarkoohaki et al. (2020),Liquid,0.5619,1-butyl-3-methylimidazolium tetrafluoroborate,,,CCCC[n+]1ccn(C)c1.F[B-](F)(F)F,1-butyl-3-methylimidazolium tetrafluoroborate,AArYBF,CC(C)O,propan-2-ol,AALcwx,CCCC[n+]1ccn(C)c1,F[B-](F)(F)F,2,,,,620,False,CCCC[n+]1ccn(C)c1.F[B-](F)(F)F,No changes
mjUzy,293.15,101.0,1132.0,Sarkoohaki et al. (2020),Liquid,0.6491,1-butyl-3-methylimidazolium tetrafluoroborate,,,CCCC[n+]1ccn(C)c1.F[B-](F)(F)F,1-butyl-3-methylimidazolium tetrafluoroborate,AArYBF,CC(C)O,propan-2-ol,AALcwx,CCCC[n+]1ccn(C)c1,F[B-](F)(F)F,2,,,,621,False,CCCC[n+]1ccn(C)c1.F[B-](F)(F)F,No changes
mjUzy,293.15,101.0,1153.9,Sarkoohaki et al. (2020),Liquid,0.7409,1-butyl-3-methylimidazolium tetrafluoroborate,,,CCCC[n+]1ccn(C)c1.F[B-](F)(F)F,1-butyl-3-methylimidazolium tetrafluoroborate,AArYBF,CC(C)O,propan-2-ol,AALcwx,CCCC[n+]1ccn(C)c1,F[B-](F)(F)F,2,,,,622,False,CCCC[n+]1ccn(C)c1.F[B-](F)(F)F,No changes
mjUzy,293.15,101.0,1175.7,Sarkoohaki et al. (2020),Liquid,0.8458,1-butyl-3-methylimidazolium tetrafluoroborate,,,CCCC[n+]1ccn(C)c1.F[B-](F)(F)F,1-butyl-3-methylimidazolium tetrafluoroborate,AArYBF,CC(C)O,propan-2-ol,AALcwx,CCCC[n+]1ccn(C)c1,F[B-](F)(F)F,2,,,,623,False,CCCC[n+]1ccn(C)c1.F[B-](F)(F)F,No changes
mjUzy,293.15,101.0,1191.6,Sarkoohaki et al. (2020),Liquid,0.9327,1-butyl-3-methylimidazolium tetrafluoroborate,,,CCCC[n+]1ccn(C)c1.F[B-](F)(F)F,1-butyl-3-methylimidazolium tetrafluoroborate,AArYBF,CC(C)O,propan-2-ol,AALcwx,CCCC[n+]1ccn(C)c1,F[B-](F)(F)F,2,,,,624,False,CCCC[n+]1ccn(C)c1.F[B-](F)(F)F,No changes
mjUzy,293.15,101.0,1202.8,Sarkoohaki et al. (2020),Liquid,1.0,1-butyl-3-methylimidazolium tetrafluoroborate,,,CCCC[n+]1ccn(C)c1.F[B-](F)(F)F,1-butyl-3-methylimidazolium tetrafluoroborate,AArYBF,CC(C)O,propan-2-ol,AALcwx,CCCC[n+]1ccn(C)c1,F[B-](F)(F)F,2,,,,625,False,CCCC[n+]1ccn(C)c1.F[B-](F)(F)F,No changes
mjUzy,298.15,101.0,781.1,Sarkoohaki et al. (2020),Liquid,0.0,1-butyl-3-methylimidazolium tetrafluoroborate,,,CCCC[n+]1ccn(C)c1.F[B-](F)(F)F,1-butyl-3-methylimidazolium tetrafluoroborate,AArYBF,CC(C)O,propan-2-ol,AALcwx,CCCC[n+]1ccn(C)c1,F[B-](F)(F)F,2,,,,626,False,CCCC[n+]1ccn(C)c1.F[B-](F)(F)F,No changes
mjUzy,298.15,101.0,865.6,Sarkoohaki et al. (2020),Liquid,0.0804,1-butyl-3-methylimidazolium tetrafluoroborate,,,CCCC[n+]1ccn(C)c1.F[B-](F)(F)F,1-butyl-3-methylimidazolium tetrafluoroborate,AArYBF,CC(C)O,propan-2-ol,AALcwx,CCCC[n+]1ccn(C)c1,F[B-](F)(F)F,2,,,,627,False,CCCC[n+]1ccn(C)c1.F[B-](F)(F)F,No changes
mjUzy,298.15,101.0,926.2,Sarkoohaki et al. (2020),Liquid,0.1585,1-butyl-3-methylimidazolium tetrafluoroborate,,,CCCC[n+]1ccn(C)c1.F[B-](F)(F)F,1-butyl-3-methylimidazolium tetrafluoroborate,AArYBF,CC(C)O,propan-2-ol,AALcwx,CCCC[n+]1ccn(C)c1,F[B-](F)(F)F,2,,,,628,False,CCCC[n+]1ccn(C)c1.F[B-](F)(F)F,No changes
mjUzy,298.15,101.0,975.9,Sarkoohaki et al. (2020),Liquid,0.2402,1-butyl-3-methylimidazolium tetrafluoroborate,,,CCCC[n+]1ccn(C)c1.F[B-](F)(F)F,1-butyl-3-methylimidazolium tetrafluoroborate,AArYBF,CC(C)O,propan-2-ol,AALcwx,CCCC[n+]1ccn(C)c1,F[B-](F)(F)F,2,,,,629,False,CCCC[n+]1ccn(C)c1.F[B-](F)(F)F,No changes
mjUzy,298.15,101.0,1029.4,Sarkoohaki et al. (2020),Liquid,0.3505,1-butyl-3-methylimidazolium tetrafluoroborate,,,CCCC[n+]1ccn(C)c1.F[B-](F)(F)F,1-butyl-3-methylimidazolium tetrafluoroborate,AArYBF,CC(C)O,propan-2-ol,AALcwx,CCCC[n+]1ccn(C)c1,F[B-](F)(F)F,2,,,,630,False,CCCC[n+]1ccn(C)c1.F[B-](F)(F)F,No changes
mjUzy,298.15,101.0,1065.5,Sarkoohaki et al. (2020),Liquid,0.4422,1-butyl-3-methylimidazolium tetrafluoroborate,,,CCCC[n+]1ccn(C)c1.F[B-](F)(F)F,1-butyl-3-methylimidazolium tetrafluoroborate,AArYBF,CC(C)O,propan-2-ol,AALcwx,CCCC[n+]1ccn(C)c1,F[B-](F)(F)F,2,,,,631,False,CCCC[n+]1ccn(C)c1.F[B-](F)(F)F,No changes
mjUzy,298.15,101.0,1104.5,Sarkoohaki et al. (2020),Liquid,0.5619,1-butyl-3-methylimidazolium tetrafluoroborate,,,CCCC[n+]1ccn(C)c1.F[B-](F)(F)F,1-butyl-3-methylimidazolium tetrafluoroborate,AArYBF,CC(C)O,propan-2-ol,AALcwx,CCCC[n+]1ccn(C)c1,F[B-](F)(F)F,2,,,,632,False,CCCC[n+]1ccn(C)c1.F[B-](F)(F)F,No changes
mjUzy,298.15,101.0,1128.4,Sarkoohaki et al. (2020),Liquid,0.6491,1-butyl-3-methylimidazolium tetrafluoroborate,,,CCCC[n+]1ccn(C)c1.F[B-](F)(F)F,1-butyl-3-methylimidazolium tetrafluoroborate,AArYBF,CC(C)O,propan-2-ol,AALcwx,CCCC[n+]1ccn(C)c1,F[B-](F)(F)F,2,,,,633,False,CCCC[n+]1ccn(C)c1.F[B-](F)(F)F,No changes
mjUzy,298.15,101.0,1150.3,Sarkoohaki et al. (2020),Liquid,0.7409,1-butyl-3-methylimidazolium tetrafluoroborate,,,CCCC[n+]1ccn(C)c1.F[B-](F)(F)F,1-butyl-3-methylimidazolium tetrafluoroborate,AArYBF,CC(C)O,propan-2-ol,AALcwx,CCCC[n+]1ccn(C)c1,F[B-](F)(F)F,2,,,,634,False,CCCC[n+]1ccn(C)c1.F[B-](F)(F)F,No changes
mjUzy,298.15,101.0,1172.1,Sarkoohaki et al. (2020),Liquid,0.8458,1-butyl-3-methylimidazolium tetrafluoroborate,,,CCCC[n+]1ccn(C)c1.F[B-](F)(F)F,1-butyl-3-methylimidazolium tetrafluoroborate,AArYBF,CC(C)O,propan-2-ol,AALcwx,CCCC[n+]1ccn(C)c1,F[B-](F)(F)F,2,,,,635,False,CCCC[n+]1ccn(C)c1.F[B-](F)(F)F,No changes
mjUzy,298.15,101.0,1188.0,Sarkoohaki et al. (2020),Liquid,0.9327,1-butyl-3-methylimidazolium tetrafluoroborate,,,CCCC[n+]1ccn(C)c1.F[B-](F)(F)F,1-butyl-3-methylimidazolium tetrafluoroborate,AArYBF,CC(C)O,propan-2-ol,AALcwx,CCCC[n+]1ccn(C)c1,F[B-](F)(F)F,2,,,,636,False,CCCC[n+]1ccn(C)c1.F[B-](F)(F)F,No changes
mjUzy,298.15,101.0,1199.2,Sarkoohaki et al. (2020),Liquid,1.0,1-butyl-3-methylimidazolium tetrafluoroborate,,,CCCC[n+]1ccn(C)c1.F[B-](F)(F)F,1-butyl-3-methylimidazolium tetrafluoroborate,AArYBF,CC(C)O,propan-2-ol,AALcwx,CCCC[n+]1ccn(C)c1,F[B-](F)(F)F,2,,,,637,False,CCCC[n+]1ccn(C)c1.F[B-](F)(F)F,No changes
mjUzy,303.15,101.0,776.8,Sarkoohaki et al. (2020),Liquid,0.0,1-butyl-3-methylimidazolium tetrafluoroborate,,,CCCC[n+]1ccn(C)c1.F[B-](F)(F)F,1-butyl-3-methylimidazolium tetrafluoroborate,AArYBF,CC(C)O,propan-2-ol,AALcwx,CCCC[n+]1ccn(C)c1,F[B-](F)(F)F,2,,,,638,False,CCCC[n+]1ccn(C)c1.F[B-](F)(F)F,No changes
mjUzy,303.15,101.0,861.8,Sarkoohaki et al. (2020),Liquid,0.0804,1-butyl-3-methylimidazolium tetrafluoroborate,,,CCCC[n+]1ccn(C)c1.F[B-](F)(F)F,1-butyl-3-methylimidazolium tetrafluoroborate,AArYBF,CC(C)O,propan-2-ol,AALcwx,CCCC[n+]1ccn(C)c1,F[B-](F)(F)F,2,,,,639,False,CCCC[n+]1ccn(C)c1.F[B-](F)(F)F,No changes
mjUzy,303.15,101.0,922.2,Sarkoohaki et al. (2020),Liquid,0.1585,1-butyl-3-methylimidazolium tetrafluoroborate,,,CCCC[n+]1ccn(C)c1.F[B-](F)(F)F,1-butyl-3-methylimidazolium tetrafluoroborate,AArYBF,CC(C)O,propan-2-ol,AALcwx,CCCC[n+]1ccn(C)c1,F[B-](F)(F)F,2,,,,640,False,CCCC[n+]1ccn(C)c1.F[B-](F)(F)F,No changes
mjUzy,303.15,101.0,972.1,Sarkoohaki et al. (2020),Liquid,0.2402,1-butyl-3-methylimidazolium tetrafluoroborate,,,CCCC[n+]1ccn(C)c1.F[B-](F)(F)F,1-butyl-3-methylimidazolium tetrafluoroborate,AArYBF,CC(C)O,propan-2-ol,AALcwx,CCCC[n+]1ccn(C)c1,F[B-](F)(F)F,2,,,,641,False,CCCC[n+]1ccn(C)c1.F[B-](F)(F)F,No changes
mjUzy,303.15,101.0,1025.7,Sarkoohaki et al. (2020),Liquid,0.3505,1-butyl-3-methylimidazolium tetrafluoroborate,,,CCCC[n+]1ccn(C)c1.F[B-](F)(F)F,1-butyl-3-methylimidazolium tetrafluoroborate,AArYBF,CC(C)O,propan-2-ol,AALcwx,CCCC[n+]1ccn(C)c1,F[B-](F)(F)F,2,,,,642,False,CCCC[n+]1ccn(C)c1.F[B-](F)(F)F,No changes
mjUzy,303.15,101.0,1061.9,Sarkoohaki et al. (2020),Liquid,0.4422,1-butyl-3-methylimidazolium tetrafluoroborate,,,CCCC[n+]1ccn(C)c1.F[B-](F)(F)F,1-butyl-3-methylimidazolium tetrafluoroborate,AArYBF,CC(C)O,propan-2-ol,AALcwx,CCCC[n+]1ccn(C)c1,F[B-](F)(F)F,2,,,,643,False,CCCC[n+]1ccn(C)c1.F[B-](F)(F)F,No changes
mjUzy,303.15,101.0,1100.9,Sarkoohaki et al. (2020),Liquid,0.5619,1-butyl-3-methylimidazolium tetrafluoroborate,,,CCCC[n+]1ccn(C)c1.F[B-](F)(F)F,1-butyl-3-methylimidazolium tetrafluoroborate,AArYBF,CC(C)O,propan-2-ol,AALcwx,CCCC[n+]1ccn(C)c1,F[B-](F)(F)F,2,,,,644,False,CCCC[n+]1ccn(C)c1.F[B-](F)(F)F,No changes
mjUzy,303.15,101.0,1124.8,Sarkoohaki et al. (2020),Liquid,0.6491,1-butyl-3-methylimidazolium tetrafluoroborate,,,CCCC[n+]1ccn(C)c1.F[B-](F)(F)F,1-butyl-3-methylimidazolium tetrafluoroborate,AArYBF,CC(C)O,propan-2-ol,AALcwx,CCCC[n+]1ccn(C)c1,F[B-](F)(F)F,2,,,,645,False,CCCC[n+]1ccn(C)c1.F[B-](F)(F)F,No changes
mjUzy,303.15,101.0,1146.7,Sarkoohaki et al. (2020),Liquid,0.7409,1-butyl-3-methylimidazolium tetrafluoroborate,,,CCCC[n+]1ccn(C)c1.F[B-](F)(F)F,1-butyl-3-methylimidazolium tetrafluoroborate,AArYBF,CC(C)O,propan-2-ol,AALcwx,CCCC[n+]1ccn(C)c1,F[B-](F)(F)F,2,,,,646,False,CCCC[n+]1ccn(C)c1.F[B-](F)(F)F,No changes
mjUzy,303.15,101.0,1168.5,Sarkoohaki et al. (2020),Liquid,0.8458,1-butyl-3-methylimidazolium tetrafluoroborate,,,CCCC[n+]1ccn(C)c1.F[B-](F)(F)F,1-butyl-3-methylimidazolium tetrafluoroborate,AArYBF,CC(C)O,propan-2-ol,AALcwx,CCCC[n+]1ccn(C)c1,F[B-](F)(F)F,2,,,,647,False,CCCC[n+]1ccn(C)c1.F[B-](F)(F)F,No changes
mjUzy,303.15,101.0,1184.4,Sarkoohaki et al. (2020),Liquid,0.9327,1-butyl-3-methylimidazolium tetrafluoroborate,,,CCCC[n+]1ccn(C)c1.F[B-](F)(F)F,1-butyl-3-methylimidazolium tetrafluoroborate,AArYBF,CC(C)O,propan-2-ol,AALcwx,CCCC[n+]1ccn(C)c1,F[B-](F)(F)F,2,,,,648,False,CCCC[n+]1ccn(C)c1.F[B-](F)(F)F,No changes
mjUzy,303.15,101.0,1195.6,Sarkoohaki et al. (2020),Liquid,1.0,1-butyl-3-methylimidazolium tetrafluoroborate,,,CCCC[n+]1ccn(C)c1.F[B-](F)(F)F,1-butyl-3-methylimidazolium tetrafluoroborate,AArYBF,CC(C)O,propan-2-ol,AALcwx,CCCC[n+]1ccn(C)c1,F[B-](F)(F)F,2,,,,649,False,CCCC[n+]1ccn(C)c1.F[B-](F)(F)F,No changes
mjUzy,308.15,101.0,772.4,Sarkoohaki et al. (2020),Liquid,0.0,1-butyl-3-methylimidazolium tetrafluoroborate,,,CCCC[n+]1ccn(C)c1.F[B-](F)(F)F,1-butyl-3-methylimidazolium tetrafluoroborate,AArYBF,CC(C)O,propan-2-ol,AALcwx,CCCC[n+]1ccn(C)c1,F[B-](F)(F)F,2,,,,650,False,CCCC[n+]1ccn(C)c1.F[B-](F)(F)F,No changes
mjUzy,308.15,101.0,858.0,Sarkoohaki et al. (2020),Liquid,0.0804,1-butyl-3-methylimidazolium tetrafluoroborate,,,CCCC[n+]1ccn(C)c1.F[B-](F)(F)F,1-butyl-3-methylimidazolium tetrafluoroborate,AArYBF,CC(C)O,propan-2-ol,AALcwx,CCCC[n+]1ccn(C)c1,F[B-](F)(F)F,2,,,,651,False,CCCC[n+]1ccn(C)c1.F[B-](F)(F)F,No changes
mjUzy,308.15,101.0,918.1,Sarkoohaki et al. (2020),Liquid,0.1585,1-butyl-3-methylimidazolium tetrafluoroborate,,,CCCC[n+]1ccn(C)c1.F[B-](F)(F)F,1-butyl-3-methylimidazolium tetrafluoroborate,AArYBF,CC(C)O,propan-2-ol,AALcwx,CCCC[n+]1ccn(C)c1,F[B-](F)(F)F,2,,,,652,False,CCCC[n+]1ccn(C)c1.F[B-](F)(F)F,No changes
mjUzy,308.15,101.0,968.0,Sarkoohaki et al. (2020),Liquid,0.2402,1-butyl-3-methylimidazolium tetrafluoroborate,,,CCCC[n+]1ccn(C)c1.F[B-](F)(F)F,1-butyl-3-methylimidazolium tetrafluoroborate,AArYBF,CC(C)O,propan-2-ol,AALcwx,CCCC[n+]1ccn(C)c1,F[B-](F)(F)F,2,,,,653,False,CCCC[n+]1ccn(C)c1.F[B-](F)(F)F,No changes
mjUzy,308.15,101.0,1021.7,Sarkoohaki et al. (2020),Liquid,0.3505,1-butyl-3-methylimidazolium tetrafluoroborate,,,CCCC[n+]1ccn(C)c1.F[B-](F)(F)F,1-butyl-3-methylimidazolium tetrafluoroborate,AArYBF,CC(C)O,propan-2-ol,AALcwx,CCCC[n+]1ccn(C)c1,F[B-](F)(F)F,2,,,,654,False,CCCC[n+]1ccn(C)c1.F[B-](F)(F)F,No changes
mjUzy,308.15,101.0,1058.1,Sarkoohaki et al. (2020),Liquid,0.4422,1-butyl-3-methylimidazolium tetrafluoroborate,,,CCCC[n+]1ccn(C)c1.F[B-](F)(F)F,1-butyl-3-methylimidazolium tetrafluoroborate,AArYBF,CC(C)O,propan-2-ol,AALcwx,CCCC[n+]1ccn(C)c1,F[B-](F)(F)F,2,,,,655,False,CCCC[n+]1ccn(C)c1.F[B-](F)(F)F,No changes
mjUzy,308.15,101.0,1097.2,Sarkoohaki et al. (2020),Liquid,0.5619,1-butyl-3-methylimidazolium tetrafluoroborate,,,CCCC[n+]1ccn(C)c1.F[B-](F)(F)F,1-butyl-3-methylimidazolium tetrafluoroborate,AArYBF,CC(C)O,propan-2-ol,AALcwx,CCCC[n+]1ccn(C)c1,F[B-](F)(F)F,2,,,,656,False,CCCC[n+]1ccn(C)c1.F[B-](F)(F)F,No changes
mjUzy,308.15,101.0,1121.1,Sarkoohaki et al. (2020),Liquid,0.6491,1-butyl-3-methylimidazolium tetrafluoroborate,,,CCCC[n+]1ccn(C)c1.F[B-](F)(F)F,1-butyl-3-methylimidazolium tetrafluoroborate,AArYBF,CC(C)O,propan-2-ol,AALcwx,CCCC[n+]1ccn(C)c1,F[B-](F)(F)F,2,,,,657,False,CCCC[n+]1ccn(C)c1.F[B-](F)(F)F,No changes
mjUzy,308.15,101.0,1143.0,Sarkoohaki et al. (2020),Liquid,0.7409,1-butyl-3-methylimidazolium tetrafluoroborate,,,CCCC[n+]1ccn(C)c1.F[B-](F)(F)F,1-butyl-3-methylimidazolium tetrafluoroborate,AArYBF,CC(C)O,propan-2-ol,AALcwx,CCCC[n+]1ccn(C)c1,F[B-](F)(F)F,2,,,,658,False,CCCC[n+]1ccn(C)c1.F[B-](F)(F)F,No changes
mjUzy,308.15,101.0,1164.9,Sarkoohaki et al. (2020),Liquid,0.8458,1-butyl-3-methylimidazolium tetrafluoroborate,,,CCCC[n+]1ccn(C)c1.F[B-](F)(F)F,1-butyl-3-methylimidazolium tetrafluoroborate,AArYBF,CC(C)O,propan-2-ol,AALcwx,CCCC[n+]1ccn(C)c1,F[B-](F)(F)F,2,,,,659,False,CCCC[n+]1ccn(C)c1.F[B-](F)(F)F,No changes