setid,Temperature (K),Pressure (kPa),Density (kg/m3),reference,phases,Mole fraction,Mole fraction of compound name,Weight fraction,Weight fraction of compound name,IL_SMILES,IL_name,IL_ID,Solvent_SMILES,Solvent_name,Solvent_ID,IL_cation_SMILES,IL_anion_SMILES,IL_component_number,Mole fraction of solvent,IL_MW,Solvent_MW,Record_ID,Contains_Metal,Standardized_IL_SMILES,Changes
yaLLd,298.15,101.3,1205.6,Singh et al. (2013),Liquid,0.9531,1-butyl-3-methylimidazolium methyl sulfate,,,CCCC[n+]1ccn(C)c1.COS(=O)(=O)[O-],1-butyl-3-methylimidazolium methyl sulfate,AAwHNg,CC(C)O,propan-2-ol,AALcwx,CCCC[n+]1ccn(C)c1,COS(=O)(=O)[O-],2,,,,1265,False,CCCC[n+]1ccn(C)c1.COS(=O)(=O)[O-],No changes
yaLLd,298.15,101.3,1212.1,Singh et al. (2013),Liquid,1.0,1-butyl-3-methylimidazolium methyl sulfate,,,CCCC[n+]1ccn(C)c1.COS(=O)(=O)[O-],1-butyl-3-methylimidazolium methyl sulfate,AAwHNg,CC(C)O,propan-2-ol,AALcwx,CCCC[n+]1ccn(C)c1,COS(=O)(=O)[O-],2,,,,1266,False,CCCC[n+]1ccn(C)c1.COS(=O)(=O)[O-],No changes
yaLLd,303.15,101.3,776.845,Singh et al. (2013),Liquid,0.0,1-butyl-3-methylimidazolium methyl sulfate,,,CCCC[n+]1ccn(C)c1.COS(=O)(=O)[O-],1-butyl-3-methylimidazolium methyl sulfate,AAwHNg,CC(C)O,propan-2-ol,AALcwx,CCCC[n+]1ccn(C)c1,COS(=O)(=O)[O-],2,,,,1267,False,CCCC[n+]1ccn(C)c1.COS(=O)(=O)[O-],No changes
yaLLd,303.15,101.3,831.096,Singh et al. (2013),Liquid,0.0482,1-butyl-3-methylimidazolium methyl sulfate,,,CCCC[n+]1ccn(C)c1.COS(=O)(=O)[O-],1-butyl-3-methylimidazolium methyl sulfate,AAwHNg,CC(C)O,propan-2-ol,AALcwx,CCCC[n+]1ccn(C)c1,COS(=O)(=O)[O-],2,,,,1268,False,CCCC[n+]1ccn(C)c1.COS(=O)(=O)[O-],No changes
yaLLd,303.15,101.3,876.702,Singh et al. (2013),Liquid,0.0965,1-butyl-3-methylimidazolium methyl sulfate,,,CCCC[n+]1ccn(C)c1.COS(=O)(=O)[O-],1-butyl-3-methylimidazolium methyl sulfate,AAwHNg,CC(C)O,propan-2-ol,AALcwx,CCCC[n+]1ccn(C)c1,COS(=O)(=O)[O-],2,,,,1269,False,CCCC[n+]1ccn(C)c1.COS(=O)(=O)[O-],No changes
yaLLd,303.15,101.3,951.52,Singh et al. (2013),Liquid,0.1938,1-butyl-3-methylimidazolium methyl sulfate,,,CCCC[n+]1ccn(C)c1.COS(=O)(=O)[O-],1-butyl-3-methylimidazolium methyl sulfate,AAwHNg,CC(C)O,propan-2-ol,AALcwx,CCCC[n+]1ccn(C)c1,COS(=O)(=O)[O-],2,,,,1270,False,CCCC[n+]1ccn(C)c1.COS(=O)(=O)[O-],No changes
yaLLd,303.15,101.3,1009.8,Singh et al. (2013),Liquid,0.2928,1-butyl-3-methylimidazolium methyl sulfate,,,CCCC[n+]1ccn(C)c1.COS(=O)(=O)[O-],1-butyl-3-methylimidazolium methyl sulfate,AAwHNg,CC(C)O,propan-2-ol,AALcwx,CCCC[n+]1ccn(C)c1,COS(=O)(=O)[O-],2,,,,1271,False,CCCC[n+]1ccn(C)c1.COS(=O)(=O)[O-],No changes
yaLLd,303.15,101.3,1055.42,Singh et al. (2013),Liquid,0.3902,1-butyl-3-methylimidazolium methyl sulfate,,,CCCC[n+]1ccn(C)c1.COS(=O)(=O)[O-],1-butyl-3-methylimidazolium methyl sulfate,AAwHNg,CC(C)O,propan-2-ol,AALcwx,CCCC[n+]1ccn(C)c1,COS(=O)(=O)[O-],2,,,,1272,False,CCCC[n+]1ccn(C)c1.COS(=O)(=O)[O-],No changes
yaLLd,303.15,101.3,1095.74,Singh et al. (2013),Liquid,0.496,1-butyl-3-methylimidazolium methyl sulfate,,,CCCC[n+]1ccn(C)c1.COS(=O)(=O)[O-],1-butyl-3-methylimidazolium methyl sulfate,AAwHNg,CC(C)O,propan-2-ol,AALcwx,CCCC[n+]1ccn(C)c1,COS(=O)(=O)[O-],2,,,,1273,False,CCCC[n+]1ccn(C)c1.COS(=O)(=O)[O-],No changes
yaLLd,303.15,101.3,1125.1,Singh et al. (2013),Liquid,0.5903,1-butyl-3-methylimidazolium methyl sulfate,,,CCCC[n+]1ccn(C)c1.COS(=O)(=O)[O-],1-butyl-3-methylimidazolium methyl sulfate,AAwHNg,CC(C)O,propan-2-ol,AALcwx,CCCC[n+]1ccn(C)c1,COS(=O)(=O)[O-],2,,,,1274,False,CCCC[n+]1ccn(C)c1.COS(=O)(=O)[O-],No changes
yaLLd,303.15,101.3,1151.0,Singh et al. (2013),Liquid,0.6902,1-butyl-3-methylimidazolium methyl sulfate,,,CCCC[n+]1ccn(C)c1.COS(=O)(=O)[O-],1-butyl-3-methylimidazolium methyl sulfate,AAwHNg,CC(C)O,propan-2-ol,AALcwx,CCCC[n+]1ccn(C)c1,COS(=O)(=O)[O-],2,,,,1275,False,CCCC[n+]1ccn(C)c1.COS(=O)(=O)[O-],No changes
yaLLd,303.15,101.3,1174.5,Singh et al. (2013),Liquid,0.7978,1-butyl-3-methylimidazolium methyl sulfate,,,CCCC[n+]1ccn(C)c1.COS(=O)(=O)[O-],1-butyl-3-methylimidazolium methyl sulfate,AAwHNg,CC(C)O,propan-2-ol,AALcwx,CCCC[n+]1ccn(C)c1,COS(=O)(=O)[O-],2,,,,1276,False,CCCC[n+]1ccn(C)c1.COS(=O)(=O)[O-],No changes
yaLLd,303.15,101.3,1202.2,Singh et al. (2013),Liquid,0.9531,1-butyl-3-methylimidazolium methyl sulfate,,,CCCC[n+]1ccn(C)c1.COS(=O)(=O)[O-],1-butyl-3-methylimidazolium methyl sulfate,AAwHNg,CC(C)O,propan-2-ol,AALcwx,CCCC[n+]1ccn(C)c1,COS(=O)(=O)[O-],2,,,,1277,False,CCCC[n+]1ccn(C)c1.COS(=O)(=O)[O-],No changes
yaLLd,303.15,101.3,1208.7,Singh et al. (2013),Liquid,1.0,1-butyl-3-methylimidazolium methyl sulfate,,,CCCC[n+]1ccn(C)c1.COS(=O)(=O)[O-],1-butyl-3-methylimidazolium methyl sulfate,AAwHNg,CC(C)O,propan-2-ol,AALcwx,CCCC[n+]1ccn(C)c1,COS(=O)(=O)[O-],2,,,,1278,False,CCCC[n+]1ccn(C)c1.COS(=O)(=O)[O-],No changes
yaLLd,308.15,101.3,772.487,Singh et al. (2013),Liquid,0.0,1-butyl-3-methylimidazolium methyl sulfate,,,CCCC[n+]1ccn(C)c1.COS(=O)(=O)[O-],1-butyl-3-methylimidazolium methyl sulfate,AAwHNg,CC(C)O,propan-2-ol,AALcwx,CCCC[n+]1ccn(C)c1,COS(=O)(=O)[O-],2,,,,1279,False,CCCC[n+]1ccn(C)c1.COS(=O)(=O)[O-],No changes
yaLLd,308.15,101.3,826.964,Singh et al. (2013),Liquid,0.0482,1-butyl-3-methylimidazolium methyl sulfate,,,CCCC[n+]1ccn(C)c1.COS(=O)(=O)[O-],1-butyl-3-methylimidazolium methyl sulfate,AAwHNg,CC(C)O,propan-2-ol,AALcwx,CCCC[n+]1ccn(C)c1,COS(=O)(=O)[O-],2,,,,1280,False,CCCC[n+]1ccn(C)c1.COS(=O)(=O)[O-],No changes
yaLLd,308.15,101.3,872.696,Singh et al. (2013),Liquid,0.0965,1-butyl-3-methylimidazolium methyl sulfate,,,CCCC[n+]1ccn(C)c1.COS(=O)(=O)[O-],1-butyl-3-methylimidazolium methyl sulfate,AAwHNg,CC(C)O,propan-2-ol,AALcwx,CCCC[n+]1ccn(C)c1,COS(=O)(=O)[O-],2,,,,1281,False,CCCC[n+]1ccn(C)c1.COS(=O)(=O)[O-],No changes
yaLLd,308.15,101.3,947.68,Singh et al. (2013),Liquid,0.1938,1-butyl-3-methylimidazolium methyl sulfate,,,CCCC[n+]1ccn(C)c1.COS(=O)(=O)[O-],1-butyl-3-methylimidazolium methyl sulfate,AAwHNg,CC(C)O,propan-2-ol,AALcwx,CCCC[n+]1ccn(C)c1,COS(=O)(=O)[O-],2,,,,1282,False,CCCC[n+]1ccn(C)c1.COS(=O)(=O)[O-],No changes
yaLLd,308.15,101.3,1006.09,Singh et al. (2013),Liquid,0.2928,1-butyl-3-methylimidazolium methyl sulfate,,,CCCC[n+]1ccn(C)c1.COS(=O)(=O)[O-],1-butyl-3-methylimidazolium methyl sulfate,AAwHNg,CC(C)O,propan-2-ol,AALcwx,CCCC[n+]1ccn(C)c1,COS(=O)(=O)[O-],2,,,,1283,False,CCCC[n+]1ccn(C)c1.COS(=O)(=O)[O-],No changes
yaLLd,308.15,101.3,1051.78,Singh et al. (2013),Liquid,0.3902,1-butyl-3-methylimidazolium methyl sulfate,,,CCCC[n+]1ccn(C)c1.COS(=O)(=O)[O-],1-butyl-3-methylimidazolium methyl sulfate,AAwHNg,CC(C)O,propan-2-ol,AALcwx,CCCC[n+]1ccn(C)c1,COS(=O)(=O)[O-],2,,,,1284,False,CCCC[n+]1ccn(C)c1.COS(=O)(=O)[O-],No changes
yaLLd,308.15,101.3,1092.2,Singh et al. (2013),Liquid,0.496,1-butyl-3-methylimidazolium methyl sulfate,,,CCCC[n+]1ccn(C)c1.COS(=O)(=O)[O-],1-butyl-3-methylimidazolium methyl sulfate,AAwHNg,CC(C)O,propan-2-ol,AALcwx,CCCC[n+]1ccn(C)c1,COS(=O)(=O)[O-],2,,,,1285,False,CCCC[n+]1ccn(C)c1.COS(=O)(=O)[O-],No changes
yaLLd,308.15,101.3,1121.7,Singh et al. (2013),Liquid,0.5903,1-butyl-3-methylimidazolium methyl sulfate,,,CCCC[n+]1ccn(C)c1.COS(=O)(=O)[O-],1-butyl-3-methylimidazolium methyl sulfate,AAwHNg,CC(C)O,propan-2-ol,AALcwx,CCCC[n+]1ccn(C)c1,COS(=O)(=O)[O-],2,,,,1286,False,CCCC[n+]1ccn(C)c1.COS(=O)(=O)[O-],No changes
yaLLd,308.15,101.3,1147.6,Singh et al. (2013),Liquid,0.6902,1-butyl-3-methylimidazolium methyl sulfate,,,CCCC[n+]1ccn(C)c1.COS(=O)(=O)[O-],1-butyl-3-methylimidazolium methyl sulfate,AAwHNg,CC(C)O,propan-2-ol,AALcwx,CCCC[n+]1ccn(C)c1,COS(=O)(=O)[O-],2,,,,1287,False,CCCC[n+]1ccn(C)c1.COS(=O)(=O)[O-],No changes
yaLLd,308.15,101.3,1171.1,Singh et al. (2013),Liquid,0.7978,1-butyl-3-methylimidazolium methyl sulfate,,,CCCC[n+]1ccn(C)c1.COS(=O)(=O)[O-],1-butyl-3-methylimidazolium methyl sulfate,AAwHNg,CC(C)O,propan-2-ol,AALcwx,CCCC[n+]1ccn(C)c1,COS(=O)(=O)[O-],2,,,,1288,False,CCCC[n+]1ccn(C)c1.COS(=O)(=O)[O-],No changes
yaLLd,308.15,101.3,1198.8,Singh et al. (2013),Liquid,0.9531,1-butyl-3-methylimidazolium methyl sulfate,,,CCCC[n+]1ccn(C)c1.COS(=O)(=O)[O-],1-butyl-3-methylimidazolium methyl sulfate,AAwHNg,CC(C)O,propan-2-ol,AALcwx,CCCC[n+]1ccn(C)c1,COS(=O)(=O)[O-],2,,,,1289,False,CCCC[n+]1ccn(C)c1.COS(=O)(=O)[O-],No changes
yaLLd,308.15,101.3,1205.3,Singh et al. (2013),Liquid,1.0,1-butyl-3-methylimidazolium methyl sulfate,,,CCCC[n+]1ccn(C)c1.COS(=O)(=O)[O-],1-butyl-3-methylimidazolium methyl sulfate,AAwHNg,CC(C)O,propan-2-ol,AALcwx,CCCC[n+]1ccn(C)c1,COS(=O)(=O)[O-],2,,,,1290,False,CCCC[n+]1ccn(C)c1.COS(=O)(=O)[O-],No changes
yaLLd,313.15,101.3,768.053,Singh et al. (2013),Liquid,0.0,1-butyl-3-methylimidazolium methyl sulfate,,,CCCC[n+]1ccn(C)c1.COS(=O)(=O)[O-],1-butyl-3-methylimidazolium methyl sulfate,AAwHNg,CC(C)O,propan-2-ol,AALcwx,CCCC[n+]1ccn(C)c1,COS(=O)(=O)[O-],2,,,,1291,False,CCCC[n+]1ccn(C)c1.COS(=O)(=O)[O-],No changes
yaLLd,313.15,101.3,822.774,Singh et al. (2013),Liquid,0.0482,1-butyl-3-methylimidazolium methyl sulfate,,,CCCC[n+]1ccn(C)c1.COS(=O)(=O)[O-],1-butyl-3-methylimidazolium methyl sulfate,AAwHNg,CC(C)O,propan-2-ol,AALcwx,CCCC[n+]1ccn(C)c1,COS(=O)(=O)[O-],2,,,,1292,False,CCCC[n+]1ccn(C)c1.COS(=O)(=O)[O-],No changes
yaLLd,313.15,101.3,868.646,Singh et al. (2013),Liquid,0.0965,1-butyl-3-methylimidazolium methyl sulfate,,,CCCC[n+]1ccn(C)c1.COS(=O)(=O)[O-],1-butyl-3-methylimidazolium methyl sulfate,AAwHNg,CC(C)O,propan-2-ol,AALcwx,CCCC[n+]1ccn(C)c1,COS(=O)(=O)[O-],2,,,,1293,False,CCCC[n+]1ccn(C)c1.COS(=O)(=O)[O-],No changes
yaLLd,313.15,101.3,943.827,Singh et al. (2013),Liquid,0.1938,1-butyl-3-methylimidazolium methyl sulfate,,,CCCC[n+]1ccn(C)c1.COS(=O)(=O)[O-],1-butyl-3-methylimidazolium methyl sulfate,AAwHNg,CC(C)O,propan-2-ol,AALcwx,CCCC[n+]1ccn(C)c1,COS(=O)(=O)[O-],2,,,,1294,False,CCCC[n+]1ccn(C)c1.COS(=O)(=O)[O-],No changes
yaLLd,313.15,101.3,1002.39,Singh et al. (2013),Liquid,0.2928,1-butyl-3-methylimidazolium methyl sulfate,,,CCCC[n+]1ccn(C)c1.COS(=O)(=O)[O-],1-butyl-3-methylimidazolium methyl sulfate,AAwHNg,CC(C)O,propan-2-ol,AALcwx,CCCC[n+]1ccn(C)c1,COS(=O)(=O)[O-],2,,,,1295,False,CCCC[n+]1ccn(C)c1.COS(=O)(=O)[O-],No changes
yaLLd,313.15,101.3,1048.13,Singh et al. (2013),Liquid,0.3902,1-butyl-3-methylimidazolium methyl sulfate,,,CCCC[n+]1ccn(C)c1.COS(=O)(=O)[O-],1-butyl-3-methylimidazolium methyl sulfate,AAwHNg,CC(C)O,propan-2-ol,AALcwx,CCCC[n+]1ccn(C)c1,COS(=O)(=O)[O-],2,,,,1296,False,CCCC[n+]1ccn(C)c1.COS(=O)(=O)[O-],No changes
yaLLd,313.15,101.3,1088.68,Singh et al. (2013),Liquid,0.496,1-butyl-3-methylimidazolium methyl sulfate,,,CCCC[n+]1ccn(C)c1.COS(=O)(=O)[O-],1-butyl-3-methylimidazolium methyl sulfate,AAwHNg,CC(C)O,propan-2-ol,AALcwx,CCCC[n+]1ccn(C)c1,COS(=O)(=O)[O-],2,,,,1297,False,CCCC[n+]1ccn(C)c1.COS(=O)(=O)[O-],No changes
yaLLd,313.15,101.3,1118.3,Singh et al. (2013),Liquid,0.5903,1-butyl-3-methylimidazolium methyl sulfate,,,CCCC[n+]1ccn(C)c1.COS(=O)(=O)[O-],1-butyl-3-methylimidazolium methyl sulfate,AAwHNg,CC(C)O,propan-2-ol,AALcwx,CCCC[n+]1ccn(C)c1,COS(=O)(=O)[O-],2,,,,1298,False,CCCC[n+]1ccn(C)c1.COS(=O)(=O)[O-],No changes
yaLLd,313.15,101.3,1144.2,Singh et al. (2013),Liquid,0.6902,1-butyl-3-methylimidazolium methyl sulfate,,,CCCC[n+]1ccn(C)c1.COS(=O)(=O)[O-],1-butyl-3-methylimidazolium methyl sulfate,AAwHNg,CC(C)O,propan-2-ol,AALcwx,CCCC[n+]1ccn(C)c1,COS(=O)(=O)[O-],2,,,,1299,False,CCCC[n+]1ccn(C)c1.COS(=O)(=O)[O-],No changes
yaLLd,313.15,101.3,1167.8,Singh et al. (2013),Liquid,0.7978,1-butyl-3-methylimidazolium methyl sulfate,,,CCCC[n+]1ccn(C)c1.COS(=O)(=O)[O-],1-butyl-3-methylimidazolium methyl sulfate,AAwHNg,CC(C)O,propan-2-ol,AALcwx,CCCC[n+]1ccn(C)c1,COS(=O)(=O)[O-],2,,,,1300,False,CCCC[n+]1ccn(C)c1.COS(=O)(=O)[O-],No changes
yaLLd,313.15,101.3,1195.5,Singh et al. (2013),Liquid,0.9531,1-butyl-3-methylimidazolium methyl sulfate,,,CCCC[n+]1ccn(C)c1.COS(=O)(=O)[O-],1-butyl-3-methylimidazolium methyl sulfate,AAwHNg,CC(C)O,propan-2-ol,AALcwx,CCCC[n+]1ccn(C)c1,COS(=O)(=O)[O-],2,,,,1301,False,CCCC[n+]1ccn(C)c1.COS(=O)(=O)[O-],No changes
yaLLd,313.15,101.3,1202.0,Singh et al. (2013),Liquid,1.0,1-butyl-3-methylimidazolium methyl sulfate,,,CCCC[n+]1ccn(C)c1.COS(=O)(=O)[O-],1-butyl-3-methylimidazolium methyl sulfate,AAwHNg,CC(C)O,propan-2-ol,AALcwx,CCCC[n+]1ccn(C)c1,COS(=O)(=O)[O-],2,,,,1302,False,CCCC[n+]1ccn(C)c1.COS(=O)(=O)[O-],No changes
RYgAi,293.15,101.0,785.3,Zhang et al. (2014d),Liquid,0.0,"1,3-dimethylimidazolium dimethyl phosphate",,,Cn1cc[n+](C)c1.COP(=O)([O-])OC,"1,3-dimethylimidazolium dimethyl phosphate",AAqlaB,CC(C)O,propan-2-ol,AALcwx,Cn1cc[n+](C)c1,COP(=O)([O-])OC,2,,,,1303,False,Cn1cc[n+](C)c1.COP(=O)([O-])OC,No changes
RYgAi,293.15,101.0,888.4,Zhang et al. (2014d),Liquid,0.0987,"1,3-dimethylimidazolium dimethyl phosphate",,,Cn1cc[n+](C)c1.COP(=O)([O-])OC,"1,3-dimethylimidazolium dimethyl phosphate",AAqlaB,CC(C)O,propan-2-ol,AALcwx,Cn1cc[n+](C)c1,COP(=O)([O-])OC,2,,,,1304,False,Cn1cc[n+](C)c1.COP(=O)([O-])OC,No changes
RYgAi,293.15,101.0,966.9,Zhang et al. (2014d),Liquid,0.2003,"1,3-dimethylimidazolium dimethyl phosphate",,,Cn1cc[n+](C)c1.COP(=O)([O-])OC,"1,3-dimethylimidazolium dimethyl phosphate",AAqlaB,CC(C)O,propan-2-ol,AALcwx,Cn1cc[n+](C)c1,COP(=O)([O-])OC,2,,,,1305,False,Cn1cc[n+](C)c1.COP(=O)([O-])OC,No changes
RYgAi,293.15,101.0,1028.9,Zhang et al. (2014d),Liquid,0.2991,"1,3-dimethylimidazolium dimethyl phosphate",,,Cn1cc[n+](C)c1.COP(=O)([O-])OC,"1,3-dimethylimidazolium dimethyl phosphate",AAqlaB,CC(C)O,propan-2-ol,AALcwx,Cn1cc[n+](C)c1,COP(=O)([O-])OC,2,,,,1306,False,Cn1cc[n+](C)c1.COP(=O)([O-])OC,No changes
RYgAi,293.15,101.0,1081.3,Zhang et al. (2014d),Liquid,0.4,"1,3-dimethylimidazolium dimethyl phosphate",,,Cn1cc[n+](C)c1.COP(=O)([O-])OC,"1,3-dimethylimidazolium dimethyl phosphate",AAqlaB,CC(C)O,propan-2-ol,AALcwx,Cn1cc[n+](C)c1,COP(=O)([O-])OC,2,,,,1307,False,Cn1cc[n+](C)c1.COP(=O)([O-])OC,No changes
RYgAi,293.15,101.0,1124.7,Zhang et al. (2014d),Liquid,0.4998,"1,3-dimethylimidazolium dimethyl phosphate",,,Cn1cc[n+](C)c1.COP(=O)([O-])OC,"1,3-dimethylimidazolium dimethyl phosphate",AAqlaB,CC(C)O,propan-2-ol,AALcwx,Cn1cc[n+](C)c1,COP(=O)([O-])OC,2,,,,1308,False,Cn1cc[n+](C)c1.COP(=O)([O-])OC,No changes
RYgAi,293.15,101.0,1160.5,Zhang et al. (2014d),Liquid,0.598,"1,3-dimethylimidazolium dimethyl phosphate",,,Cn1cc[n+](C)c1.COP(=O)([O-])OC,"1,3-dimethylimidazolium dimethyl phosphate",AAqlaB,CC(C)O,propan-2-ol,AALcwx,Cn1cc[n+](C)c1,COP(=O)([O-])OC,2,,,,1309,False,Cn1cc[n+](C)c1.COP(=O)([O-])OC,No changes
RYgAi,293.15,101.0,1192.6,Zhang et al. (2014d),Liquid,0.699,"1,3-dimethylimidazolium dimethyl phosphate",,,Cn1cc[n+](C)c1.COP(=O)([O-])OC,"1,3-dimethylimidazolium dimethyl phosphate",AAqlaB,CC(C)O,propan-2-ol,AALcwx,Cn1cc[n+](C)c1,COP(=O)([O-])OC,2,,,,1310,False,Cn1cc[n+](C)c1.COP(=O)([O-])OC,No changes
RYgAi,293.15,101.0,1219.1,Zhang et al. (2014d),Liquid,0.7968,"1,3-dimethylimidazolium dimethyl phosphate",,,Cn1cc[n+](C)c1.COP(=O)([O-])OC,"1,3-dimethylimidazolium dimethyl phosphate",AAqlaB,CC(C)O,propan-2-ol,AALcwx,Cn1cc[n+](C)c1,COP(=O)([O-])OC,2,,,,1311,False,Cn1cc[n+](C)c1.COP(=O)([O-])OC,No changes
RYgAi,293.15,101.0,1243.8,Zhang et al. (2014d),Liquid,0.9001,"1,3-dimethylimidazolium dimethyl phosphate",,,Cn1cc[n+](C)c1.COP(=O)([O-])OC,"1,3-dimethylimidazolium dimethyl phosphate",AAqlaB,CC(C)O,propan-2-ol,AALcwx,Cn1cc[n+](C)c1,COP(=O)([O-])OC,2,,,,1312,False,Cn1cc[n+](C)c1.COP(=O)([O-])OC,No changes
RYgAi,293.15,101.0,1264.9,Zhang et al. (2014d),Liquid,1.0,"1,3-dimethylimidazolium dimethyl phosphate",,,Cn1cc[n+](C)c1.COP(=O)([O-])OC,"1,3-dimethylimidazolium dimethyl phosphate",AAqlaB,CC(C)O,propan-2-ol,AALcwx,Cn1cc[n+](C)c1,COP(=O)([O-])OC,2,,,,1313,False,Cn1cc[n+](C)c1.COP(=O)([O-])OC,No changes
RYgAi,298.15,101.0,781.1,Zhang et al. (2014d),Liquid,0.0,"1,3-dimethylimidazolium dimethyl phosphate",,,Cn1cc[n+](C)c1.COP(=O)([O-])OC,"1,3-dimethylimidazolium dimethyl phosphate",AAqlaB,CC(C)O,propan-2-ol,AALcwx,Cn1cc[n+](C)c1,COP(=O)([O-])OC,2,,,,1314,False,Cn1cc[n+](C)c1.COP(=O)([O-])OC,No changes
RYgAi,298.15,101.0,884.5,Zhang et al. (2014d),Liquid,0.0987,"1,3-dimethylimidazolium dimethyl phosphate",,,Cn1cc[n+](C)c1.COP(=O)([O-])OC,"1,3-dimethylimidazolium dimethyl phosphate",AAqlaB,CC(C)O,propan-2-ol,AALcwx,Cn1cc[n+](C)c1,COP(=O)([O-])OC,2,,,,1315,False,Cn1cc[n+](C)c1.COP(=O)([O-])OC,No changes
RYgAi,298.15,101.0,963.2,Zhang et al. (2014d),Liquid,0.2003,"1,3-dimethylimidazolium dimethyl phosphate",,,Cn1cc[n+](C)c1.COP(=O)([O-])OC,"1,3-dimethylimidazolium dimethyl phosphate",AAqlaB,CC(C)O,propan-2-ol,AALcwx,Cn1cc[n+](C)c1,COP(=O)([O-])OC,2,,,,1316,False,Cn1cc[n+](C)c1.COP(=O)([O-])OC,No changes
RYgAi,298.15,101.0,1025.2,Zhang et al. (2014d),Liquid,0.2991,"1,3-dimethylimidazolium dimethyl phosphate",,,Cn1cc[n+](C)c1.COP(=O)([O-])OC,"1,3-dimethylimidazolium dimethyl phosphate",AAqlaB,CC(C)O,propan-2-ol,AALcwx,Cn1cc[n+](C)c1,COP(=O)([O-])OC,2,,,,1317,False,Cn1cc[n+](C)c1.COP(=O)([O-])OC,No changes
RYgAi,298.15,101.0,1077.8,Zhang et al. (2014d),Liquid,0.4,"1,3-dimethylimidazolium dimethyl phosphate",,,Cn1cc[n+](C)c1.COP(=O)([O-])OC,"1,3-dimethylimidazolium dimethyl phosphate",AAqlaB,CC(C)O,propan-2-ol,AALcwx,Cn1cc[n+](C)c1,COP(=O)([O-])OC,2,,,,1318,False,Cn1cc[n+](C)c1.COP(=O)([O-])OC,No changes
RYgAi,298.15,101.0,1121.1,Zhang et al. (2014d),Liquid,0.4998,"1,3-dimethylimidazolium dimethyl phosphate",,,Cn1cc[n+](C)c1.COP(=O)([O-])OC,"1,3-dimethylimidazolium dimethyl phosphate",AAqlaB,CC(C)O,propan-2-ol,AALcwx,Cn1cc[n+](C)c1,COP(=O)([O-])OC,2,,,,1319,False,Cn1cc[n+](C)c1.COP(=O)([O-])OC,No changes
RYgAi,298.15,101.0,1157.0,Zhang et al. (2014d),Liquid,0.598,"1,3-dimethylimidazolium dimethyl phosphate",,,Cn1cc[n+](C)c1.COP(=O)([O-])OC,"1,3-dimethylimidazolium dimethyl phosphate",AAqlaB,CC(C)O,propan-2-ol,AALcwx,Cn1cc[n+](C)c1,COP(=O)([O-])OC,2,,,,1320,False,Cn1cc[n+](C)c1.COP(=O)([O-])OC,No changes
RYgAi,298.15,101.0,1189.1,Zhang et al. (2014d),Liquid,0.699,"1,3-dimethylimidazolium dimethyl phosphate",,,Cn1cc[n+](C)c1.COP(=O)([O-])OC,"1,3-dimethylimidazolium dimethyl phosphate",AAqlaB,CC(C)O,propan-2-ol,AALcwx,Cn1cc[n+](C)c1,COP(=O)([O-])OC,2,,,,1321,False,Cn1cc[n+](C)c1.COP(=O)([O-])OC,No changes
RYgAi,298.15,101.0,1215.7,Zhang et al. (2014d),Liquid,0.7968,"1,3-dimethylimidazolium dimethyl phosphate",,,Cn1cc[n+](C)c1.COP(=O)([O-])OC,"1,3-dimethylimidazolium dimethyl phosphate",AAqlaB,CC(C)O,propan-2-ol,AALcwx,Cn1cc[n+](C)c1,COP(=O)([O-])OC,2,,,,1322,False,Cn1cc[n+](C)c1.COP(=O)([O-])OC,No changes
RYgAi,298.15,101.0,1240.2,Zhang et al. (2014d),Liquid,0.9001,"1,3-dimethylimidazolium dimethyl phosphate",,,Cn1cc[n+](C)c1.COP(=O)([O-])OC,"1,3-dimethylimidazolium dimethyl phosphate",AAqlaB,CC(C)O,propan-2-ol,AALcwx,Cn1cc[n+](C)c1,COP(=O)([O-])OC,2,,,,1323,False,Cn1cc[n+](C)c1.COP(=O)([O-])OC,No changes
RYgAi,298.15,101.0,1261.3,Zhang et al. (2014d),Liquid,1.0,"1,3-dimethylimidazolium dimethyl phosphate",,,Cn1cc[n+](C)c1.COP(=O)([O-])OC,"1,3-dimethylimidazolium dimethyl phosphate",AAqlaB,CC(C)O,propan-2-ol,AALcwx,Cn1cc[n+](C)c1,COP(=O)([O-])OC,2,,,,1324,False,Cn1cc[n+](C)c1.COP(=O)([O-])OC,No changes
RYgAi,303.15,101.0,776.8,Zhang et al. (2014d),Liquid,0.0,"1,3-dimethylimidazolium dimethyl phosphate",,,Cn1cc[n+](C)c1.COP(=O)([O-])OC,"1,3-dimethylimidazolium dimethyl phosphate",AAqlaB,CC(C)O,propan-2-ol,AALcwx,Cn1cc[n+](C)c1,COP(=O)([O-])OC,2,,,,1325,False,Cn1cc[n+](C)c1.COP(=O)([O-])OC,No changes
RYgAi,303.15,101.0,880.6,Zhang et al. (2014d),Liquid,0.0987,"1,3-dimethylimidazolium dimethyl phosphate",,,Cn1cc[n+](C)c1.COP(=O)([O-])OC,"1,3-dimethylimidazolium dimethyl phosphate",AAqlaB,CC(C)O,propan-2-ol,AALcwx,Cn1cc[n+](C)c1,COP(=O)([O-])OC,2,,,,1326,False,Cn1cc[n+](C)c1.COP(=O)([O-])OC,No changes
RYgAi,303.15,101.0,959.4,Zhang et al. (2014d),Liquid,0.2003,"1,3-dimethylimidazolium dimethyl phosphate",,,Cn1cc[n+](C)c1.COP(=O)([O-])OC,"1,3-dimethylimidazolium dimethyl phosphate",AAqlaB,CC(C)O,propan-2-ol,AALcwx,Cn1cc[n+](C)c1,COP(=O)([O-])OC,2,,,,1327,False,Cn1cc[n+](C)c1.COP(=O)([O-])OC,No changes