setid,Temperature (K),Pressure (kPa),Density (kg/m3),reference,phases,Mole fraction,Mole fraction of compound name,Weight fraction,Weight fraction of compound name,IL_SMILES,IL_name,IL_ID,Solvent_SMILES,Solvent_name,Solvent_ID,IL_cation_SMILES,IL_anion_SMILES,IL_component_number,Mole fraction of solvent,IL_MW,Solvent_MW,Record_ID,Contains_Metal,Standardized_IL_SMILES,Changes
qhEbI,293.15,101.0,1173.2,Garcia-Mardones et al. (2012b),Liquid,0.8942,1-butyl-4-methylpyridinium tetrafluoroborate,,,CCCC[n+]1ccc(C)cc1.F[B-](F)(F)F,1-butyl-4-methylpyridinium tetrafluoroborate,AAtevY,CCO,ethanol,AAIsrh,CCCC[n+]1ccc(C)cc1,F[B-](F)(F)F,2,,,,1285,False,CCCC[n+]1ccc(C)cc1.F[B-](F)(F)F,No changes
qhEbI,293.15,101.0,1179.69,Garcia-Mardones et al. (2012b),Liquid,0.946,1-butyl-4-methylpyridinium tetrafluoroborate,,,CCCC[n+]1ccc(C)cc1.F[B-](F)(F)F,1-butyl-4-methylpyridinium tetrafluoroborate,AAtevY,CCO,ethanol,AAIsrh,CCCC[n+]1ccc(C)cc1,F[B-](F)(F)F,2,,,,1286,False,CCCC[n+]1ccc(C)cc1.F[B-](F)(F)F,No changes
qhEbI,303.15,101.0,843.78,Garcia-Mardones et al. (2012b),Liquid,0.0481,1-butyl-4-methylpyridinium tetrafluoroborate,,,CCCC[n+]1ccc(C)cc1.F[B-](F)(F)F,1-butyl-4-methylpyridinium tetrafluoroborate,AAtevY,CCO,ethanol,AAIsrh,CCCC[n+]1ccc(C)cc1,F[B-](F)(F)F,2,,,,1287,False,CCCC[n+]1ccc(C)cc1.F[B-](F)(F)F,No changes
qhEbI,303.15,101.0,892.25,Garcia-Mardones et al. (2012b),Liquid,0.0952,1-butyl-4-methylpyridinium tetrafluoroborate,,,CCCC[n+]1ccc(C)cc1.F[B-](F)(F)F,1-butyl-4-methylpyridinium tetrafluoroborate,AAtevY,CCO,ethanol,AAIsrh,CCCC[n+]1ccc(C)cc1,F[B-](F)(F)F,2,,,,1288,False,CCCC[n+]1ccc(C)cc1.F[B-](F)(F)F,No changes
qhEbI,303.15,101.0,964.56,Garcia-Mardones et al. (2012b),Liquid,0.1896,1-butyl-4-methylpyridinium tetrafluoroborate,,,CCCC[n+]1ccc(C)cc1.F[B-](F)(F)F,1-butyl-4-methylpyridinium tetrafluoroborate,AAtevY,CCO,ethanol,AAIsrh,CCCC[n+]1ccc(C)cc1,F[B-](F)(F)F,2,,,,1289,False,CCCC[n+]1ccc(C)cc1.F[B-](F)(F)F,No changes
qhEbI,303.15,101.0,1016.72,Garcia-Mardones et al. (2012b),Liquid,0.2856,1-butyl-4-methylpyridinium tetrafluoroborate,,,CCCC[n+]1ccc(C)cc1.F[B-](F)(F)F,1-butyl-4-methylpyridinium tetrafluoroborate,AAtevY,CCO,ethanol,AAIsrh,CCCC[n+]1ccc(C)cc1,F[B-](F)(F)F,2,,,,1290,False,CCCC[n+]1ccc(C)cc1.F[B-](F)(F)F,No changes
qhEbI,303.15,101.0,1056.57,Garcia-Mardones et al. (2012b),Liquid,0.3839,1-butyl-4-methylpyridinium tetrafluoroborate,,,CCCC[n+]1ccc(C)cc1.F[B-](F)(F)F,1-butyl-4-methylpyridinium tetrafluoroborate,AAtevY,CCO,ethanol,AAIsrh,CCCC[n+]1ccc(C)cc1,F[B-](F)(F)F,2,,,,1291,False,CCCC[n+]1ccc(C)cc1.F[B-](F)(F)F,No changes
qhEbI,303.15,101.0,1100.11,Garcia-Mardones et al. (2012b),Liquid,0.5297,1-butyl-4-methylpyridinium tetrafluoroborate,,,CCCC[n+]1ccc(C)cc1.F[B-](F)(F)F,1-butyl-4-methylpyridinium tetrafluoroborate,AAtevY,CCO,ethanol,AAIsrh,CCCC[n+]1ccc(C)cc1,F[B-](F)(F)F,2,,,,1292,False,CCCC[n+]1ccc(C)cc1.F[B-](F)(F)F,No changes
qhEbI,303.15,101.0,1113.47,Garcia-Mardones et al. (2012b),Liquid,0.5858,1-butyl-4-methylpyridinium tetrafluoroborate,,,CCCC[n+]1ccc(C)cc1.F[B-](F)(F)F,1-butyl-4-methylpyridinium tetrafluoroborate,AAtevY,CCO,ethanol,AAIsrh,CCCC[n+]1ccc(C)cc1,F[B-](F)(F)F,2,,,,1293,False,CCCC[n+]1ccc(C)cc1.F[B-](F)(F)F,No changes
qhEbI,303.15,101.0,1133.97,Garcia-Mardones et al. (2012b),Liquid,0.6862,1-butyl-4-methylpyridinium tetrafluoroborate,,,CCCC[n+]1ccc(C)cc1.F[B-](F)(F)F,1-butyl-4-methylpyridinium tetrafluoroborate,AAtevY,CCO,ethanol,AAIsrh,CCCC[n+]1ccc(C)cc1,F[B-](F)(F)F,2,,,,1294,False,CCCC[n+]1ccc(C)cc1.F[B-](F)(F)F,No changes
qhEbI,303.15,101.0,1151.41,Garcia-Mardones et al. (2012b),Liquid,0.7889,1-butyl-4-methylpyridinium tetrafluoroborate,,,CCCC[n+]1ccc(C)cc1.F[B-](F)(F)F,1-butyl-4-methylpyridinium tetrafluoroborate,AAtevY,CCO,ethanol,AAIsrh,CCCC[n+]1ccc(C)cc1,F[B-](F)(F)F,2,,,,1295,False,CCCC[n+]1ccc(C)cc1.F[B-](F)(F)F,No changes
qhEbI,303.15,101.0,1159.26,Garcia-Mardones et al. (2012b),Liquid,0.8418,1-butyl-4-methylpyridinium tetrafluoroborate,,,CCCC[n+]1ccc(C)cc1.F[B-](F)(F)F,1-butyl-4-methylpyridinium tetrafluoroborate,AAtevY,CCO,ethanol,AAIsrh,CCCC[n+]1ccc(C)cc1,F[B-](F)(F)F,2,,,,1296,False,CCCC[n+]1ccc(C)cc1.F[B-](F)(F)F,No changes
qhEbI,303.15,101.0,1166.4,Garcia-Mardones et al. (2012b),Liquid,0.8942,1-butyl-4-methylpyridinium tetrafluoroborate,,,CCCC[n+]1ccc(C)cc1.F[B-](F)(F)F,1-butyl-4-methylpyridinium tetrafluoroborate,AAtevY,CCO,ethanol,AAIsrh,CCCC[n+]1ccc(C)cc1,F[B-](F)(F)F,2,,,,1297,False,CCCC[n+]1ccc(C)cc1.F[B-](F)(F)F,No changes
qhEbI,303.15,101.0,1172.89,Garcia-Mardones et al. (2012b),Liquid,0.946,1-butyl-4-methylpyridinium tetrafluoroborate,,,CCCC[n+]1ccc(C)cc1.F[B-](F)(F)F,1-butyl-4-methylpyridinium tetrafluoroborate,AAtevY,CCO,ethanol,AAIsrh,CCCC[n+]1ccc(C)cc1,F[B-](F)(F)F,2,,,,1298,False,CCCC[n+]1ccc(C)cc1.F[B-](F)(F)F,No changes
qhEbI,313.15,101.0,835.55,Garcia-Mardones et al. (2012b),Liquid,0.0481,1-butyl-4-methylpyridinium tetrafluoroborate,,,CCCC[n+]1ccc(C)cc1.F[B-](F)(F)F,1-butyl-4-methylpyridinium tetrafluoroborate,AAtevY,CCO,ethanol,AAIsrh,CCCC[n+]1ccc(C)cc1,F[B-](F)(F)F,2,,,,1299,False,CCCC[n+]1ccc(C)cc1.F[B-](F)(F)F,No changes
qhEbI,313.15,101.0,884.1,Garcia-Mardones et al. (2012b),Liquid,0.0952,1-butyl-4-methylpyridinium tetrafluoroborate,,,CCCC[n+]1ccc(C)cc1.F[B-](F)(F)F,1-butyl-4-methylpyridinium tetrafluoroborate,AAtevY,CCO,ethanol,AAIsrh,CCCC[n+]1ccc(C)cc1,F[B-](F)(F)F,2,,,,1300,False,CCCC[n+]1ccc(C)cc1.F[B-](F)(F)F,No changes
qhEbI,313.15,101.0,956.53,Garcia-Mardones et al. (2012b),Liquid,0.1896,1-butyl-4-methylpyridinium tetrafluoroborate,,,CCCC[n+]1ccc(C)cc1.F[B-](F)(F)F,1-butyl-4-methylpyridinium tetrafluoroborate,AAtevY,CCO,ethanol,AAIsrh,CCCC[n+]1ccc(C)cc1,F[B-](F)(F)F,2,,,,1301,False,CCCC[n+]1ccc(C)cc1.F[B-](F)(F)F,No changes
qhEbI,313.15,101.0,1008.96,Garcia-Mardones et al. (2012b),Liquid,0.2856,1-butyl-4-methylpyridinium tetrafluoroborate,,,CCCC[n+]1ccc(C)cc1.F[B-](F)(F)F,1-butyl-4-methylpyridinium tetrafluoroborate,AAtevY,CCO,ethanol,AAIsrh,CCCC[n+]1ccc(C)cc1,F[B-](F)(F)F,2,,,,1302,False,CCCC[n+]1ccc(C)cc1.F[B-](F)(F)F,No changes
qhEbI,313.15,101.0,1049.08,Garcia-Mardones et al. (2012b),Liquid,0.3839,1-butyl-4-methylpyridinium tetrafluoroborate,,,CCCC[n+]1ccc(C)cc1.F[B-](F)(F)F,1-butyl-4-methylpyridinium tetrafluoroborate,AAtevY,CCO,ethanol,AAIsrh,CCCC[n+]1ccc(C)cc1,F[B-](F)(F)F,2,,,,1303,False,CCCC[n+]1ccc(C)cc1.F[B-](F)(F)F,No changes
qhEbI,313.15,101.0,1092.88,Garcia-Mardones et al. (2012b),Liquid,0.5297,1-butyl-4-methylpyridinium tetrafluoroborate,,,CCCC[n+]1ccc(C)cc1.F[B-](F)(F)F,1-butyl-4-methylpyridinium tetrafluoroborate,AAtevY,CCO,ethanol,AAIsrh,CCCC[n+]1ccc(C)cc1,F[B-](F)(F)F,2,,,,1304,False,CCCC[n+]1ccc(C)cc1.F[B-](F)(F)F,No changes
qhEbI,313.15,101.0,1106.29,Garcia-Mardones et al. (2012b),Liquid,0.5858,1-butyl-4-methylpyridinium tetrafluoroborate,,,CCCC[n+]1ccc(C)cc1.F[B-](F)(F)F,1-butyl-4-methylpyridinium tetrafluoroborate,AAtevY,CCO,ethanol,AAIsrh,CCCC[n+]1ccc(C)cc1,F[B-](F)(F)F,2,,,,1305,False,CCCC[n+]1ccc(C)cc1.F[B-](F)(F)F,No changes
qhEbI,313.15,101.0,1126.84,Garcia-Mardones et al. (2012b),Liquid,0.6862,1-butyl-4-methylpyridinium tetrafluoroborate,,,CCCC[n+]1ccc(C)cc1.F[B-](F)(F)F,1-butyl-4-methylpyridinium tetrafluoroborate,AAtevY,CCO,ethanol,AAIsrh,CCCC[n+]1ccc(C)cc1,F[B-](F)(F)F,2,,,,1306,False,CCCC[n+]1ccc(C)cc1.F[B-](F)(F)F,No changes
qhEbI,313.15,101.0,1144.3,Garcia-Mardones et al. (2012b),Liquid,0.7889,1-butyl-4-methylpyridinium tetrafluoroborate,,,CCCC[n+]1ccc(C)cc1.F[B-](F)(F)F,1-butyl-4-methylpyridinium tetrafluoroborate,AAtevY,CCO,ethanol,AAIsrh,CCCC[n+]1ccc(C)cc1,F[B-](F)(F)F,2,,,,1307,False,CCCC[n+]1ccc(C)cc1.F[B-](F)(F)F,No changes
qhEbI,313.15,101.0,1152.16,Garcia-Mardones et al. (2012b),Liquid,0.8418,1-butyl-4-methylpyridinium tetrafluoroborate,,,CCCC[n+]1ccc(C)cc1.F[B-](F)(F)F,1-butyl-4-methylpyridinium tetrafluoroborate,AAtevY,CCO,ethanol,AAIsrh,CCCC[n+]1ccc(C)cc1,F[B-](F)(F)F,2,,,,1308,False,CCCC[n+]1ccc(C)cc1.F[B-](F)(F)F,No changes
qhEbI,313.15,101.0,1159.32,Garcia-Mardones et al. (2012b),Liquid,0.8942,1-butyl-4-methylpyridinium tetrafluoroborate,,,CCCC[n+]1ccc(C)cc1.F[B-](F)(F)F,1-butyl-4-methylpyridinium tetrafluoroborate,AAtevY,CCO,ethanol,AAIsrh,CCCC[n+]1ccc(C)cc1,F[B-](F)(F)F,2,,,,1309,False,CCCC[n+]1ccc(C)cc1.F[B-](F)(F)F,No changes
qhEbI,313.15,101.0,1165.84,Garcia-Mardones et al. (2012b),Liquid,0.946,1-butyl-4-methylpyridinium tetrafluoroborate,,,CCCC[n+]1ccc(C)cc1.F[B-](F)(F)F,1-butyl-4-methylpyridinium tetrafluoroborate,AAtevY,CCO,ethanol,AAIsrh,CCCC[n+]1ccc(C)cc1,F[B-](F)(F)F,2,,,,1310,False,CCCC[n+]1ccc(C)cc1.F[B-](F)(F)F,No changes
qhEbI,323.15,101.0,827.17,Garcia-Mardones et al. (2012b),Liquid,0.0481,1-butyl-4-methylpyridinium tetrafluoroborate,,,CCCC[n+]1ccc(C)cc1.F[B-](F)(F)F,1-butyl-4-methylpyridinium tetrafluoroborate,AAtevY,CCO,ethanol,AAIsrh,CCCC[n+]1ccc(C)cc1,F[B-](F)(F)F,2,,,,1311,False,CCCC[n+]1ccc(C)cc1.F[B-](F)(F)F,No changes
qhEbI,323.15,101.0,875.8,Garcia-Mardones et al. (2012b),Liquid,0.0952,1-butyl-4-methylpyridinium tetrafluoroborate,,,CCCC[n+]1ccc(C)cc1.F[B-](F)(F)F,1-butyl-4-methylpyridinium tetrafluoroborate,AAtevY,CCO,ethanol,AAIsrh,CCCC[n+]1ccc(C)cc1,F[B-](F)(F)F,2,,,,1312,False,CCCC[n+]1ccc(C)cc1.F[B-](F)(F)F,No changes
qhEbI,323.15,101.0,948.48,Garcia-Mardones et al. (2012b),Liquid,0.1896,1-butyl-4-methylpyridinium tetrafluoroborate,,,CCCC[n+]1ccc(C)cc1.F[B-](F)(F)F,1-butyl-4-methylpyridinium tetrafluoroborate,AAtevY,CCO,ethanol,AAIsrh,CCCC[n+]1ccc(C)cc1,F[B-](F)(F)F,2,,,,1313,False,CCCC[n+]1ccc(C)cc1.F[B-](F)(F)F,No changes
qhEbI,323.15,101.0,1001.26,Garcia-Mardones et al. (2012b),Liquid,0.2856,1-butyl-4-methylpyridinium tetrafluoroborate,,,CCCC[n+]1ccc(C)cc1.F[B-](F)(F)F,1-butyl-4-methylpyridinium tetrafluoroborate,AAtevY,CCO,ethanol,AAIsrh,CCCC[n+]1ccc(C)cc1,F[B-](F)(F)F,2,,,,1314,False,CCCC[n+]1ccc(C)cc1.F[B-](F)(F)F,No changes
qhEbI,323.15,101.0,1041.7,Garcia-Mardones et al. (2012b),Liquid,0.3839,1-butyl-4-methylpyridinium tetrafluoroborate,,,CCCC[n+]1ccc(C)cc1.F[B-](F)(F)F,1-butyl-4-methylpyridinium tetrafluoroborate,AAtevY,CCO,ethanol,AAIsrh,CCCC[n+]1ccc(C)cc1,F[B-](F)(F)F,2,,,,1315,False,CCCC[n+]1ccc(C)cc1.F[B-](F)(F)F,No changes
qhEbI,323.15,101.0,1085.83,Garcia-Mardones et al. (2012b),Liquid,0.5297,1-butyl-4-methylpyridinium tetrafluoroborate,,,CCCC[n+]1ccc(C)cc1.F[B-](F)(F)F,1-butyl-4-methylpyridinium tetrafluoroborate,AAtevY,CCO,ethanol,AAIsrh,CCCC[n+]1ccc(C)cc1,F[B-](F)(F)F,2,,,,1316,False,CCCC[n+]1ccc(C)cc1.F[B-](F)(F)F,No changes
qhEbI,323.15,101.0,1099.32,Garcia-Mardones et al. (2012b),Liquid,0.5858,1-butyl-4-methylpyridinium tetrafluoroborate,,,CCCC[n+]1ccc(C)cc1.F[B-](F)(F)F,1-butyl-4-methylpyridinium tetrafluoroborate,AAtevY,CCO,ethanol,AAIsrh,CCCC[n+]1ccc(C)cc1,F[B-](F)(F)F,2,,,,1317,False,CCCC[n+]1ccc(C)cc1.F[B-](F)(F)F,No changes
qhEbI,323.15,101.0,1119.98,Garcia-Mardones et al. (2012b),Liquid,0.6862,1-butyl-4-methylpyridinium tetrafluoroborate,,,CCCC[n+]1ccc(C)cc1.F[B-](F)(F)F,1-butyl-4-methylpyridinium tetrafluoroborate,AAtevY,CCO,ethanol,AAIsrh,CCCC[n+]1ccc(C)cc1,F[B-](F)(F)F,2,,,,1318,False,CCCC[n+]1ccc(C)cc1.F[B-](F)(F)F,No changes
qhEbI,323.15,101.0,1137.51,Garcia-Mardones et al. (2012b),Liquid,0.7889,1-butyl-4-methylpyridinium tetrafluoroborate,,,CCCC[n+]1ccc(C)cc1.F[B-](F)(F)F,1-butyl-4-methylpyridinium tetrafluoroborate,AAtevY,CCO,ethanol,AAIsrh,CCCC[n+]1ccc(C)cc1,F[B-](F)(F)F,2,,,,1319,False,CCCC[n+]1ccc(C)cc1.F[B-](F)(F)F,No changes
qhEbI,323.15,101.0,1145.41,Garcia-Mardones et al. (2012b),Liquid,0.8418,1-butyl-4-methylpyridinium tetrafluoroborate,,,CCCC[n+]1ccc(C)cc1.F[B-](F)(F)F,1-butyl-4-methylpyridinium tetrafluoroborate,AAtevY,CCO,ethanol,AAIsrh,CCCC[n+]1ccc(C)cc1,F[B-](F)(F)F,2,,,,1320,False,CCCC[n+]1ccc(C)cc1.F[B-](F)(F)F,No changes
qhEbI,323.15,101.0,1152.61,Garcia-Mardones et al. (2012b),Liquid,0.8942,1-butyl-4-methylpyridinium tetrafluoroborate,,,CCCC[n+]1ccc(C)cc1.F[B-](F)(F)F,1-butyl-4-methylpyridinium tetrafluoroborate,AAtevY,CCO,ethanol,AAIsrh,CCCC[n+]1ccc(C)cc1,F[B-](F)(F)F,2,,,,1321,False,CCCC[n+]1ccc(C)cc1.F[B-](F)(F)F,No changes
qhEbI,323.15,101.0,1159.18,Garcia-Mardones et al. (2012b),Liquid,0.946,1-butyl-4-methylpyridinium tetrafluoroborate,,,CCCC[n+]1ccc(C)cc1.F[B-](F)(F)F,1-butyl-4-methylpyridinium tetrafluoroborate,AAtevY,CCO,ethanol,AAIsrh,CCCC[n+]1ccc(C)cc1,F[B-](F)(F)F,2,,,,1322,False,CCCC[n+]1ccc(C)cc1.F[B-](F)(F)F,No changes
ffwvd,283.15,101.0,797.96,Lladosa et al. (2021),Liquid,0.0,1-ethyl-3-methylimidazolium methyl sulfate,,,CC[n+]1ccn(C)c1.COS(=O)(=O)[O-],1-ethyl-3-methylimidazolium methyl sulfate,AAqmVN,CCO,ethanol,AAIsrh,CC[n+]1ccn(C)c1,COS(=O)(=O)[O-],2,,,,1323,False,CC[n+]1ccn(C)c1.COS(=O)(=O)[O-],No changes
ffwvd,283.15,101.0,877.91,Lladosa et al. (2021),Liquid,0.0561,1-ethyl-3-methylimidazolium methyl sulfate,,,CC[n+]1ccn(C)c1.COS(=O)(=O)[O-],1-ethyl-3-methylimidazolium methyl sulfate,AAqmVN,CCO,ethanol,AAIsrh,CC[n+]1ccn(C)c1,COS(=O)(=O)[O-],2,,,,1324,False,CC[n+]1ccn(C)c1.COS(=O)(=O)[O-],No changes
ffwvd,283.15,101.0,940.59,Lladosa et al. (2021),Liquid,0.112,1-ethyl-3-methylimidazolium methyl sulfate,,,CC[n+]1ccn(C)c1.COS(=O)(=O)[O-],1-ethyl-3-methylimidazolium methyl sulfate,AAqmVN,CCO,ethanol,AAIsrh,CC[n+]1ccn(C)c1,COS(=O)(=O)[O-],2,,,,1325,False,CC[n+]1ccn(C)c1.COS(=O)(=O)[O-],No changes
ffwvd,283.15,101.0,1030.4,Lladosa et al. (2021),Liquid,0.213,1-ethyl-3-methylimidazolium methyl sulfate,,,CC[n+]1ccn(C)c1.COS(=O)(=O)[O-],1-ethyl-3-methylimidazolium methyl sulfate,AAqmVN,CCO,ethanol,AAIsrh,CC[n+]1ccn(C)c1,COS(=O)(=O)[O-],2,,,,1326,False,CC[n+]1ccn(C)c1.COS(=O)(=O)[O-],No changes
ffwvd,283.15,101.0,1102.73,Lladosa et al. (2021),Liquid,0.3285,1-ethyl-3-methylimidazolium methyl sulfate,,,CC[n+]1ccn(C)c1.COS(=O)(=O)[O-],1-ethyl-3-methylimidazolium methyl sulfate,AAqmVN,CCO,ethanol,AAIsrh,CC[n+]1ccn(C)c1,COS(=O)(=O)[O-],2,,,,1327,False,CC[n+]1ccn(C)c1.COS(=O)(=O)[O-],No changes
ffwvd,283.15,101.0,1116.6,Lladosa et al. (2021),Liquid,0.356,1-ethyl-3-methylimidazolium methyl sulfate,,,CC[n+]1ccn(C)c1.COS(=O)(=O)[O-],1-ethyl-3-methylimidazolium methyl sulfate,AAqmVN,CCO,ethanol,AAIsrh,CC[n+]1ccn(C)c1,COS(=O)(=O)[O-],2,,,,1328,False,CC[n+]1ccn(C)c1.COS(=O)(=O)[O-],No changes
ffwvd,283.15,101.0,1186.17,Lladosa et al. (2021),Liquid,0.525,1-ethyl-3-methylimidazolium methyl sulfate,,,CC[n+]1ccn(C)c1.COS(=O)(=O)[O-],1-ethyl-3-methylimidazolium methyl sulfate,AAqmVN,CCO,ethanol,AAIsrh,CC[n+]1ccn(C)c1,COS(=O)(=O)[O-],2,,,,1329,False,CC[n+]1ccn(C)c1.COS(=O)(=O)[O-],No changes
ffwvd,283.15,101.0,1216.85,Lladosa et al. (2021),Liquid,0.632,1-ethyl-3-methylimidazolium methyl sulfate,,,CC[n+]1ccn(C)c1.COS(=O)(=O)[O-],1-ethyl-3-methylimidazolium methyl sulfate,AAqmVN,CCO,ethanol,AAIsrh,CC[n+]1ccn(C)c1,COS(=O)(=O)[O-],2,,,,1330,False,CC[n+]1ccn(C)c1.COS(=O)(=O)[O-],No changes
ffwvd,283.15,101.0,1241.16,Lladosa et al. (2021),Liquid,0.7294,1-ethyl-3-methylimidazolium methyl sulfate,,,CC[n+]1ccn(C)c1.COS(=O)(=O)[O-],1-ethyl-3-methylimidazolium methyl sulfate,AAqmVN,CCO,ethanol,AAIsrh,CC[n+]1ccn(C)c1,COS(=O)(=O)[O-],2,,,,1331,False,CC[n+]1ccn(C)c1.COS(=O)(=O)[O-],No changes
ffwvd,283.15,101.0,1260.05,Lladosa et al. (2021),Liquid,0.8202,1-ethyl-3-methylimidazolium methyl sulfate,,,CC[n+]1ccn(C)c1.COS(=O)(=O)[O-],1-ethyl-3-methylimidazolium methyl sulfate,AAqmVN,CCO,ethanol,AAIsrh,CC[n+]1ccn(C)c1,COS(=O)(=O)[O-],2,,,,1332,False,CC[n+]1ccn(C)c1.COS(=O)(=O)[O-],No changes
ffwvd,283.15,101.0,1276.87,Lladosa et al. (2021),Liquid,0.9108,1-ethyl-3-methylimidazolium methyl sulfate,,,CC[n+]1ccn(C)c1.COS(=O)(=O)[O-],1-ethyl-3-methylimidazolium methyl sulfate,AAqmVN,CCO,ethanol,AAIsrh,CC[n+]1ccn(C)c1,COS(=O)(=O)[O-],2,,,,1333,False,CC[n+]1ccn(C)c1.COS(=O)(=O)[O-],No changes
ffwvd,283.15,101.0,1284.1,Lladosa et al. (2021),Liquid,0.9556,1-ethyl-3-methylimidazolium methyl sulfate,,,CC[n+]1ccn(C)c1.COS(=O)(=O)[O-],1-ethyl-3-methylimidazolium methyl sulfate,AAqmVN,CCO,ethanol,AAIsrh,CC[n+]1ccn(C)c1,COS(=O)(=O)[O-],2,,,,1334,False,CC[n+]1ccn(C)c1.COS(=O)(=O)[O-],No changes
ffwvd,283.15,101.0,1290.79,Lladosa et al. (2021),Liquid,1.0,1-ethyl-3-methylimidazolium methyl sulfate,,,CC[n+]1ccn(C)c1.COS(=O)(=O)[O-],1-ethyl-3-methylimidazolium methyl sulfate,AAqmVN,CCO,ethanol,AAIsrh,CC[n+]1ccn(C)c1,COS(=O)(=O)[O-],2,,,,1335,False,CC[n+]1ccn(C)c1.COS(=O)(=O)[O-],No changes
ffwvd,293.15,101.0,789.45,Lladosa et al. (2021),Liquid,0.0,1-ethyl-3-methylimidazolium methyl sulfate,,,CC[n+]1ccn(C)c1.COS(=O)(=O)[O-],1-ethyl-3-methylimidazolium methyl sulfate,AAqmVN,CCO,ethanol,AAIsrh,CC[n+]1ccn(C)c1,COS(=O)(=O)[O-],2,,,,1336,False,CC[n+]1ccn(C)c1.COS(=O)(=O)[O-],No changes
ffwvd,293.15,101.0,869.68,Lladosa et al. (2021),Liquid,0.0561,1-ethyl-3-methylimidazolium methyl sulfate,,,CC[n+]1ccn(C)c1.COS(=O)(=O)[O-],1-ethyl-3-methylimidazolium methyl sulfate,AAqmVN,CCO,ethanol,AAIsrh,CC[n+]1ccn(C)c1,COS(=O)(=O)[O-],2,,,,1337,False,CC[n+]1ccn(C)c1.COS(=O)(=O)[O-],No changes
ffwvd,293.15,101.0,932.56,Lladosa et al. (2021),Liquid,0.112,1-ethyl-3-methylimidazolium methyl sulfate,,,CC[n+]1ccn(C)c1.COS(=O)(=O)[O-],1-ethyl-3-methylimidazolium methyl sulfate,AAqmVN,CCO,ethanol,AAIsrh,CC[n+]1ccn(C)c1,COS(=O)(=O)[O-],2,,,,1338,False,CC[n+]1ccn(C)c1.COS(=O)(=O)[O-],No changes
ffwvd,293.15,101.0,1022.66,Lladosa et al. (2021),Liquid,0.213,1-ethyl-3-methylimidazolium methyl sulfate,,,CC[n+]1ccn(C)c1.COS(=O)(=O)[O-],1-ethyl-3-methylimidazolium methyl sulfate,AAqmVN,CCO,ethanol,AAIsrh,CC[n+]1ccn(C)c1,COS(=O)(=O)[O-],2,,,,1339,False,CC[n+]1ccn(C)c1.COS(=O)(=O)[O-],No changes
ffwvd,293.15,101.0,1095.22,Lladosa et al. (2021),Liquid,0.3285,1-ethyl-3-methylimidazolium methyl sulfate,,,CC[n+]1ccn(C)c1.COS(=O)(=O)[O-],1-ethyl-3-methylimidazolium methyl sulfate,AAqmVN,CCO,ethanol,AAIsrh,CC[n+]1ccn(C)c1,COS(=O)(=O)[O-],2,,,,1340,False,CC[n+]1ccn(C)c1.COS(=O)(=O)[O-],No changes
ffwvd,293.15,101.0,1109.14,Lladosa et al. (2021),Liquid,0.356,1-ethyl-3-methylimidazolium methyl sulfate,,,CC[n+]1ccn(C)c1.COS(=O)(=O)[O-],1-ethyl-3-methylimidazolium methyl sulfate,AAqmVN,CCO,ethanol,AAIsrh,CC[n+]1ccn(C)c1,COS(=O)(=O)[O-],2,,,,1341,False,CC[n+]1ccn(C)c1.COS(=O)(=O)[O-],No changes
ffwvd,293.15,101.0,1178.92,Lladosa et al. (2021),Liquid,0.525,1-ethyl-3-methylimidazolium methyl sulfate,,,CC[n+]1ccn(C)c1.COS(=O)(=O)[O-],1-ethyl-3-methylimidazolium methyl sulfate,AAqmVN,CCO,ethanol,AAIsrh,CC[n+]1ccn(C)c1,COS(=O)(=O)[O-],2,,,,1342,False,CC[n+]1ccn(C)c1.COS(=O)(=O)[O-],No changes
ffwvd,293.15,101.0,1209.45,Lladosa et al. (2021),Liquid,0.632,1-ethyl-3-methylimidazolium methyl sulfate,,,CC[n+]1ccn(C)c1.COS(=O)(=O)[O-],1-ethyl-3-methylimidazolium methyl sulfate,AAqmVN,CCO,ethanol,AAIsrh,CC[n+]1ccn(C)c1,COS(=O)(=O)[O-],2,,,,1343,False,CC[n+]1ccn(C)c1.COS(=O)(=O)[O-],No changes
ffwvd,293.15,101.0,1235.29,Lladosa et al. (2021),Liquid,0.7294,1-ethyl-3-methylimidazolium methyl sulfate,,,CC[n+]1ccn(C)c1.COS(=O)(=O)[O-],1-ethyl-3-methylimidazolium methyl sulfate,AAqmVN,CCO,ethanol,AAIsrh,CC[n+]1ccn(C)c1,COS(=O)(=O)[O-],2,,,,1344,False,CC[n+]1ccn(C)c1.COS(=O)(=O)[O-],No changes
ffwvd,293.15,101.0,1253.01,Lladosa et al. (2021),Liquid,0.8202,1-ethyl-3-methylimidazolium methyl sulfate,,,CC[n+]1ccn(C)c1.COS(=O)(=O)[O-],1-ethyl-3-methylimidazolium methyl sulfate,AAqmVN,CCO,ethanol,AAIsrh,CC[n+]1ccn(C)c1,COS(=O)(=O)[O-],2,,,,1345,False,CC[n+]1ccn(C)c1.COS(=O)(=O)[O-],No changes
ffwvd,293.15,101.0,1269.82,Lladosa et al. (2021),Liquid,0.9108,1-ethyl-3-methylimidazolium methyl sulfate,,,CC[n+]1ccn(C)c1.COS(=O)(=O)[O-],1-ethyl-3-methylimidazolium methyl sulfate,AAqmVN,CCO,ethanol,AAIsrh,CC[n+]1ccn(C)c1,COS(=O)(=O)[O-],2,,,,1346,False,CC[n+]1ccn(C)c1.COS(=O)(=O)[O-],No changes
ffwvd,293.15,101.0,1277.06,Lladosa et al. (2021),Liquid,0.9556,1-ethyl-3-methylimidazolium methyl sulfate,,,CC[n+]1ccn(C)c1.COS(=O)(=O)[O-],1-ethyl-3-methylimidazolium methyl sulfate,AAqmVN,CCO,ethanol,AAIsrh,CC[n+]1ccn(C)c1,COS(=O)(=O)[O-],2,,,,1347,False,CC[n+]1ccn(C)c1.COS(=O)(=O)[O-],No changes