setid,Temperature (K),Pressure (kPa),Density (kg/m3),reference,phases,Mole fraction,Mole fraction of compound name,Weight fraction,Weight fraction of compound name,IL_SMILES,IL_name,IL_ID,Solvent_SMILES,Solvent_name,Solvent_ID,IL_cation_SMILES,IL_anion_SMILES,IL_component_number,Mole fraction of solvent,IL_MW,Solvent_MW,Record_ID,Contains_Metal,Standardized_IL_SMILES,Changes
DidcB,298.15,101.0,1321.04,Salinas et al. (2015),Liquid,0.484,1-butyl-3-methylimidazolium bis(trifluoromethylsulfonyl)imide,,,CCCC[n+]1ccn(C)c1.O=S(=O)([N-]S(=O)(=O)C(F)(F)F)C(F)(F)F,1-butyl-3-methylimidazolium bis(trifluoromethylsulfonyl)imide,ABchwx,CCO,ethanol,AAIsrh,CCCC[n+]1ccn(C)c1,O=S(=O)([N-]S(=O)(=O)C(F)(F)F)C(F)(F)F,2,,,,1406,False,CCCC[n+]1ccn(C)c1.O=S(=O)([N-]S(=O)(=O)C(F)(F)F)C(F)(F)F,No changes
DidcB,298.15,101.0,1355.98,Salinas et al. (2015),Liquid,0.591,1-butyl-3-methylimidazolium bis(trifluoromethylsulfonyl)imide,,,CCCC[n+]1ccn(C)c1.O=S(=O)([N-]S(=O)(=O)C(F)(F)F)C(F)(F)F,1-butyl-3-methylimidazolium bis(trifluoromethylsulfonyl)imide,ABchwx,CCO,ethanol,AAIsrh,CCCC[n+]1ccn(C)c1,O=S(=O)([N-]S(=O)(=O)C(F)(F)F)C(F)(F)F,2,,,,1407,False,CCCC[n+]1ccn(C)c1.O=S(=O)([N-]S(=O)(=O)C(F)(F)F)C(F)(F)F,No changes
DidcB,298.15,101.0,1382.23,Salinas et al. (2015),Liquid,0.696,1-butyl-3-methylimidazolium bis(trifluoromethylsulfonyl)imide,,,CCCC[n+]1ccn(C)c1.O=S(=O)([N-]S(=O)(=O)C(F)(F)F)C(F)(F)F,1-butyl-3-methylimidazolium bis(trifluoromethylsulfonyl)imide,ABchwx,CCO,ethanol,AAIsrh,CCCC[n+]1ccn(C)c1,O=S(=O)([N-]S(=O)(=O)C(F)(F)F)C(F)(F)F,2,,,,1408,False,CCCC[n+]1ccn(C)c1.O=S(=O)([N-]S(=O)(=O)C(F)(F)F)C(F)(F)F,No changes
DidcB,298.15,101.0,1406.65,Salinas et al. (2015),Liquid,0.818,1-butyl-3-methylimidazolium bis(trifluoromethylsulfonyl)imide,,,CCCC[n+]1ccn(C)c1.O=S(=O)([N-]S(=O)(=O)C(F)(F)F)C(F)(F)F,1-butyl-3-methylimidazolium bis(trifluoromethylsulfonyl)imide,ABchwx,CCO,ethanol,AAIsrh,CCCC[n+]1ccn(C)c1,O=S(=O)([N-]S(=O)(=O)C(F)(F)F)C(F)(F)F,2,,,,1409,False,CCCC[n+]1ccn(C)c1.O=S(=O)([N-]S(=O)(=O)C(F)(F)F)C(F)(F)F,No changes
DidcB,298.15,101.0,1420.19,Salinas et al. (2015),Liquid,0.9,1-butyl-3-methylimidazolium bis(trifluoromethylsulfonyl)imide,,,CCCC[n+]1ccn(C)c1.O=S(=O)([N-]S(=O)(=O)C(F)(F)F)C(F)(F)F,1-butyl-3-methylimidazolium bis(trifluoromethylsulfonyl)imide,ABchwx,CCO,ethanol,AAIsrh,CCCC[n+]1ccn(C)c1,O=S(=O)([N-]S(=O)(=O)C(F)(F)F)C(F)(F)F,2,,,,1410,False,CCCC[n+]1ccn(C)c1.O=S(=O)([N-]S(=O)(=O)C(F)(F)F)C(F)(F)F,No changes
DidcB,298.15,101.0,1434.23,Salinas et al. (2015),Liquid,1.0,1-butyl-3-methylimidazolium bis(trifluoromethylsulfonyl)imide,,,CCCC[n+]1ccn(C)c1.O=S(=O)([N-]S(=O)(=O)C(F)(F)F)C(F)(F)F,1-butyl-3-methylimidazolium bis(trifluoromethylsulfonyl)imide,ABchwx,CCO,ethanol,AAIsrh,CCCC[n+]1ccn(C)c1,O=S(=O)([N-]S(=O)(=O)C(F)(F)F)C(F)(F)F,2,,,,1411,False,CCCC[n+]1ccn(C)c1.O=S(=O)([N-]S(=O)(=O)C(F)(F)F)C(F)(F)F,No changes
DidcB,318.15,101.0,767.84,Salinas et al. (2015),Liquid,0.0,1-butyl-3-methylimidazolium bis(trifluoromethylsulfonyl)imide,,,CCCC[n+]1ccn(C)c1.O=S(=O)([N-]S(=O)(=O)C(F)(F)F)C(F)(F)F,1-butyl-3-methylimidazolium bis(trifluoromethylsulfonyl)imide,ABchwx,CCO,ethanol,AAIsrh,CCCC[n+]1ccn(C)c1,O=S(=O)([N-]S(=O)(=O)C(F)(F)F)C(F)(F)F,2,,,,1412,False,CCCC[n+]1ccn(C)c1.O=S(=O)([N-]S(=O)(=O)C(F)(F)F)C(F)(F)F,No changes
DidcB,318.15,101.0,903.02,Salinas et al. (2015),Liquid,0.049,1-butyl-3-methylimidazolium bis(trifluoromethylsulfonyl)imide,,,CCCC[n+]1ccn(C)c1.O=S(=O)([N-]S(=O)(=O)C(F)(F)F)C(F)(F)F,1-butyl-3-methylimidazolium bis(trifluoromethylsulfonyl)imide,ABchwx,CCO,ethanol,AAIsrh,CCCC[n+]1ccn(C)c1,O=S(=O)([N-]S(=O)(=O)C(F)(F)F)C(F)(F)F,2,,,,1413,False,CCCC[n+]1ccn(C)c1.O=S(=O)([N-]S(=O)(=O)C(F)(F)F)C(F)(F)F,No changes
DidcB,318.15,101.0,994.64,Salinas et al. (2015),Liquid,0.096,1-butyl-3-methylimidazolium bis(trifluoromethylsulfonyl)imide,,,CCCC[n+]1ccn(C)c1.O=S(=O)([N-]S(=O)(=O)C(F)(F)F)C(F)(F)F,1-butyl-3-methylimidazolium bis(trifluoromethylsulfonyl)imide,ABchwx,CCO,ethanol,AAIsrh,CCCC[n+]1ccn(C)c1,O=S(=O)([N-]S(=O)(=O)C(F)(F)F)C(F)(F)F,2,,,,1414,False,CCCC[n+]1ccn(C)c1.O=S(=O)([N-]S(=O)(=O)C(F)(F)F)C(F)(F)F,No changes
DidcB,318.15,101.0,1123.77,Salinas et al. (2015),Liquid,0.194,1-butyl-3-methylimidazolium bis(trifluoromethylsulfonyl)imide,,,CCCC[n+]1ccn(C)c1.O=S(=O)([N-]S(=O)(=O)C(F)(F)F)C(F)(F)F,1-butyl-3-methylimidazolium bis(trifluoromethylsulfonyl)imide,ABchwx,CCO,ethanol,AAIsrh,CCCC[n+]1ccn(C)c1,O=S(=O)([N-]S(=O)(=O)C(F)(F)F)C(F)(F)F,2,,,,1415,False,CCCC[n+]1ccn(C)c1.O=S(=O)([N-]S(=O)(=O)C(F)(F)F)C(F)(F)F,No changes
DidcB,318.15,101.0,1202.45,Salinas et al. (2015),Liquid,0.288,1-butyl-3-methylimidazolium bis(trifluoromethylsulfonyl)imide,,,CCCC[n+]1ccn(C)c1.O=S(=O)([N-]S(=O)(=O)C(F)(F)F)C(F)(F)F,1-butyl-3-methylimidazolium bis(trifluoromethylsulfonyl)imide,ABchwx,CCO,ethanol,AAIsrh,CCCC[n+]1ccn(C)c1,O=S(=O)([N-]S(=O)(=O)C(F)(F)F)C(F)(F)F,2,,,,1416,False,CCCC[n+]1ccn(C)c1.O=S(=O)([N-]S(=O)(=O)C(F)(F)F)C(F)(F)F,No changes
DidcB,318.15,101.0,1261.65,Salinas et al. (2015),Liquid,0.39,1-butyl-3-methylimidazolium bis(trifluoromethylsulfonyl)imide,,,CCCC[n+]1ccn(C)c1.O=S(=O)([N-]S(=O)(=O)C(F)(F)F)C(F)(F)F,1-butyl-3-methylimidazolium bis(trifluoromethylsulfonyl)imide,ABchwx,CCO,ethanol,AAIsrh,CCCC[n+]1ccn(C)c1,O=S(=O)([N-]S(=O)(=O)C(F)(F)F)C(F)(F)F,2,,,,1417,False,CCCC[n+]1ccn(C)c1.O=S(=O)([N-]S(=O)(=O)C(F)(F)F)C(F)(F)F,No changes
DidcB,318.15,101.0,1301.51,Salinas et al. (2015),Liquid,0.484,1-butyl-3-methylimidazolium bis(trifluoromethylsulfonyl)imide,,,CCCC[n+]1ccn(C)c1.O=S(=O)([N-]S(=O)(=O)C(F)(F)F)C(F)(F)F,1-butyl-3-methylimidazolium bis(trifluoromethylsulfonyl)imide,ABchwx,CCO,ethanol,AAIsrh,CCCC[n+]1ccn(C)c1,O=S(=O)([N-]S(=O)(=O)C(F)(F)F)C(F)(F)F,2,,,,1418,False,CCCC[n+]1ccn(C)c1.O=S(=O)([N-]S(=O)(=O)C(F)(F)F)C(F)(F)F,No changes
DidcB,318.15,101.0,1336.54,Salinas et al. (2015),Liquid,0.591,1-butyl-3-methylimidazolium bis(trifluoromethylsulfonyl)imide,,,CCCC[n+]1ccn(C)c1.O=S(=O)([N-]S(=O)(=O)C(F)(F)F)C(F)(F)F,1-butyl-3-methylimidazolium bis(trifluoromethylsulfonyl)imide,ABchwx,CCO,ethanol,AAIsrh,CCCC[n+]1ccn(C)c1,O=S(=O)([N-]S(=O)(=O)C(F)(F)F)C(F)(F)F,2,,,,1419,False,CCCC[n+]1ccn(C)c1.O=S(=O)([N-]S(=O)(=O)C(F)(F)F)C(F)(F)F,No changes
DidcB,318.15,101.0,1362.91,Salinas et al. (2015),Liquid,0.696,1-butyl-3-methylimidazolium bis(trifluoromethylsulfonyl)imide,,,CCCC[n+]1ccn(C)c1.O=S(=O)([N-]S(=O)(=O)C(F)(F)F)C(F)(F)F,1-butyl-3-methylimidazolium bis(trifluoromethylsulfonyl)imide,ABchwx,CCO,ethanol,AAIsrh,CCCC[n+]1ccn(C)c1,O=S(=O)([N-]S(=O)(=O)C(F)(F)F)C(F)(F)F,2,,,,1420,False,CCCC[n+]1ccn(C)c1.O=S(=O)([N-]S(=O)(=O)C(F)(F)F)C(F)(F)F,No changes
DidcB,318.15,101.0,1387.44,Salinas et al. (2015),Liquid,0.818,1-butyl-3-methylimidazolium bis(trifluoromethylsulfonyl)imide,,,CCCC[n+]1ccn(C)c1.O=S(=O)([N-]S(=O)(=O)C(F)(F)F)C(F)(F)F,1-butyl-3-methylimidazolium bis(trifluoromethylsulfonyl)imide,ABchwx,CCO,ethanol,AAIsrh,CCCC[n+]1ccn(C)c1,O=S(=O)([N-]S(=O)(=O)C(F)(F)F)C(F)(F)F,2,,,,1421,False,CCCC[n+]1ccn(C)c1.O=S(=O)([N-]S(=O)(=O)C(F)(F)F)C(F)(F)F,No changes
DidcB,318.15,101.0,1401.04,Salinas et al. (2015),Liquid,0.9,1-butyl-3-methylimidazolium bis(trifluoromethylsulfonyl)imide,,,CCCC[n+]1ccn(C)c1.O=S(=O)([N-]S(=O)(=O)C(F)(F)F)C(F)(F)F,1-butyl-3-methylimidazolium bis(trifluoromethylsulfonyl)imide,ABchwx,CCO,ethanol,AAIsrh,CCCC[n+]1ccn(C)c1,O=S(=O)([N-]S(=O)(=O)C(F)(F)F)C(F)(F)F,2,,,,1422,False,CCCC[n+]1ccn(C)c1.O=S(=O)([N-]S(=O)(=O)C(F)(F)F)C(F)(F)F,No changes
DidcB,318.15,101.0,1415.13,Salinas et al. (2015),Liquid,1.0,1-butyl-3-methylimidazolium bis(trifluoromethylsulfonyl)imide,,,CCCC[n+]1ccn(C)c1.O=S(=O)([N-]S(=O)(=O)C(F)(F)F)C(F)(F)F,1-butyl-3-methylimidazolium bis(trifluoromethylsulfonyl)imide,ABchwx,CCO,ethanol,AAIsrh,CCCC[n+]1ccn(C)c1,O=S(=O)([N-]S(=O)(=O)C(F)(F)F)C(F)(F)F,2,,,,1423,False,CCCC[n+]1ccn(C)c1.O=S(=O)([N-]S(=O)(=O)C(F)(F)F)C(F)(F)F,No changes
DidcB,338.15,101.0,749.54,Salinas et al. (2015),Liquid,0.0,1-butyl-3-methylimidazolium bis(trifluoromethylsulfonyl)imide,,,CCCC[n+]1ccn(C)c1.O=S(=O)([N-]S(=O)(=O)C(F)(F)F)C(F)(F)F,1-butyl-3-methylimidazolium bis(trifluoromethylsulfonyl)imide,ABchwx,CCO,ethanol,AAIsrh,CCCC[n+]1ccn(C)c1,O=S(=O)([N-]S(=O)(=O)C(F)(F)F)C(F)(F)F,2,,,,1424,False,CCCC[n+]1ccn(C)c1.O=S(=O)([N-]S(=O)(=O)C(F)(F)F)C(F)(F)F,No changes
DidcB,338.15,101.0,883.95,Salinas et al. (2015),Liquid,0.049,1-butyl-3-methylimidazolium bis(trifluoromethylsulfonyl)imide,,,CCCC[n+]1ccn(C)c1.O=S(=O)([N-]S(=O)(=O)C(F)(F)F)C(F)(F)F,1-butyl-3-methylimidazolium bis(trifluoromethylsulfonyl)imide,ABchwx,CCO,ethanol,AAIsrh,CCCC[n+]1ccn(C)c1,O=S(=O)([N-]S(=O)(=O)C(F)(F)F)C(F)(F)F,2,,,,1425,False,CCCC[n+]1ccn(C)c1.O=S(=O)([N-]S(=O)(=O)C(F)(F)F)C(F)(F)F,No changes
DidcB,338.15,101.0,975.18,Salinas et al. (2015),Liquid,0.096,1-butyl-3-methylimidazolium bis(trifluoromethylsulfonyl)imide,,,CCCC[n+]1ccn(C)c1.O=S(=O)([N-]S(=O)(=O)C(F)(F)F)C(F)(F)F,1-butyl-3-methylimidazolium bis(trifluoromethylsulfonyl)imide,ABchwx,CCO,ethanol,AAIsrh,CCCC[n+]1ccn(C)c1,O=S(=O)([N-]S(=O)(=O)C(F)(F)F)C(F)(F)F,2,,,,1426,False,CCCC[n+]1ccn(C)c1.O=S(=O)([N-]S(=O)(=O)C(F)(F)F)C(F)(F)F,No changes
DidcB,338.15,101.0,1104.04,Salinas et al. (2015),Liquid,0.194,1-butyl-3-methylimidazolium bis(trifluoromethylsulfonyl)imide,,,CCCC[n+]1ccn(C)c1.O=S(=O)([N-]S(=O)(=O)C(F)(F)F)C(F)(F)F,1-butyl-3-methylimidazolium bis(trifluoromethylsulfonyl)imide,ABchwx,CCO,ethanol,AAIsrh,CCCC[n+]1ccn(C)c1,O=S(=O)([N-]S(=O)(=O)C(F)(F)F)C(F)(F)F,2,,,,1427,False,CCCC[n+]1ccn(C)c1.O=S(=O)([N-]S(=O)(=O)C(F)(F)F)C(F)(F)F,No changes
DidcB,338.15,101.0,1182.73,Salinas et al. (2015),Liquid,0.288,1-butyl-3-methylimidazolium bis(trifluoromethylsulfonyl)imide,,,CCCC[n+]1ccn(C)c1.O=S(=O)([N-]S(=O)(=O)C(F)(F)F)C(F)(F)F,1-butyl-3-methylimidazolium bis(trifluoromethylsulfonyl)imide,ABchwx,CCO,ethanol,AAIsrh,CCCC[n+]1ccn(C)c1,O=S(=O)([N-]S(=O)(=O)C(F)(F)F)C(F)(F)F,2,,,,1428,False,CCCC[n+]1ccn(C)c1.O=S(=O)([N-]S(=O)(=O)C(F)(F)F)C(F)(F)F,No changes
DidcB,338.15,101.0,1242.06,Salinas et al. (2015),Liquid,0.39,1-butyl-3-methylimidazolium bis(trifluoromethylsulfonyl)imide,,,CCCC[n+]1ccn(C)c1.O=S(=O)([N-]S(=O)(=O)C(F)(F)F)C(F)(F)F,1-butyl-3-methylimidazolium bis(trifluoromethylsulfonyl)imide,ABchwx,CCO,ethanol,AAIsrh,CCCC[n+]1ccn(C)c1,O=S(=O)([N-]S(=O)(=O)C(F)(F)F)C(F)(F)F,2,,,,1429,False,CCCC[n+]1ccn(C)c1.O=S(=O)([N-]S(=O)(=O)C(F)(F)F)C(F)(F)F,No changes
DidcB,338.15,101.0,1282.08,Salinas et al. (2015),Liquid,0.484,1-butyl-3-methylimidazolium bis(trifluoromethylsulfonyl)imide,,,CCCC[n+]1ccn(C)c1.O=S(=O)([N-]S(=O)(=O)C(F)(F)F)C(F)(F)F,1-butyl-3-methylimidazolium bis(trifluoromethylsulfonyl)imide,ABchwx,CCO,ethanol,AAIsrh,CCCC[n+]1ccn(C)c1,O=S(=O)([N-]S(=O)(=O)C(F)(F)F)C(F)(F)F,2,,,,1430,False,CCCC[n+]1ccn(C)c1.O=S(=O)([N-]S(=O)(=O)C(F)(F)F)C(F)(F)F,No changes
DidcB,338.15,101.0,1317.28,Salinas et al. (2015),Liquid,0.591,1-butyl-3-methylimidazolium bis(trifluoromethylsulfonyl)imide,,,CCCC[n+]1ccn(C)c1.O=S(=O)([N-]S(=O)(=O)C(F)(F)F)C(F)(F)F,1-butyl-3-methylimidazolium bis(trifluoromethylsulfonyl)imide,ABchwx,CCO,ethanol,AAIsrh,CCCC[n+]1ccn(C)c1,O=S(=O)([N-]S(=O)(=O)C(F)(F)F)C(F)(F)F,2,,,,1431,False,CCCC[n+]1ccn(C)c1.O=S(=O)([N-]S(=O)(=O)C(F)(F)F)C(F)(F)F,No changes
DidcB,338.15,101.0,1343.8,Salinas et al. (2015),Liquid,0.696,1-butyl-3-methylimidazolium bis(trifluoromethylsulfonyl)imide,,,CCCC[n+]1ccn(C)c1.O=S(=O)([N-]S(=O)(=O)C(F)(F)F)C(F)(F)F,1-butyl-3-methylimidazolium bis(trifluoromethylsulfonyl)imide,ABchwx,CCO,ethanol,AAIsrh,CCCC[n+]1ccn(C)c1,O=S(=O)([N-]S(=O)(=O)C(F)(F)F)C(F)(F)F,2,,,,1432,False,CCCC[n+]1ccn(C)c1.O=S(=O)([N-]S(=O)(=O)C(F)(F)F)C(F)(F)F,No changes
DidcB,338.15,101.0,1368.47,Salinas et al. (2015),Liquid,0.818,1-butyl-3-methylimidazolium bis(trifluoromethylsulfonyl)imide,,,CCCC[n+]1ccn(C)c1.O=S(=O)([N-]S(=O)(=O)C(F)(F)F)C(F)(F)F,1-butyl-3-methylimidazolium bis(trifluoromethylsulfonyl)imide,ABchwx,CCO,ethanol,AAIsrh,CCCC[n+]1ccn(C)c1,O=S(=O)([N-]S(=O)(=O)C(F)(F)F)C(F)(F)F,2,,,,1433,False,CCCC[n+]1ccn(C)c1.O=S(=O)([N-]S(=O)(=O)C(F)(F)F)C(F)(F)F,No changes
DidcB,338.15,101.0,1382.15,Salinas et al. (2015),Liquid,0.9,1-butyl-3-methylimidazolium bis(trifluoromethylsulfonyl)imide,,,CCCC[n+]1ccn(C)c1.O=S(=O)([N-]S(=O)(=O)C(F)(F)F)C(F)(F)F,1-butyl-3-methylimidazolium bis(trifluoromethylsulfonyl)imide,ABchwx,CCO,ethanol,AAIsrh,CCCC[n+]1ccn(C)c1,O=S(=O)([N-]S(=O)(=O)C(F)(F)F)C(F)(F)F,2,,,,1434,False,CCCC[n+]1ccn(C)c1.O=S(=O)([N-]S(=O)(=O)C(F)(F)F)C(F)(F)F,No changes
DidcB,338.15,101.0,1396.35,Salinas et al. (2015),Liquid,1.0,1-butyl-3-methylimidazolium bis(trifluoromethylsulfonyl)imide,,,CCCC[n+]1ccn(C)c1.O=S(=O)([N-]S(=O)(=O)C(F)(F)F)C(F)(F)F,1-butyl-3-methylimidazolium bis(trifluoromethylsulfonyl)imide,ABchwx,CCO,ethanol,AAIsrh,CCCC[n+]1ccn(C)c1,O=S(=O)([N-]S(=O)(=O)C(F)(F)F)C(F)(F)F,2,,,,1435,False,CCCC[n+]1ccn(C)c1.O=S(=O)([N-]S(=O)(=O)C(F)(F)F)C(F)(F)F,No changes
ulFca,298.15,101.3,790.0,Anouti et al. (2010a),Liquid,0.0,1H-imidazolium octanoate,,,c1c[nH+]c[nH]1.CCCCCCCC(=O)[O-],1H-imidazolium octanoate,AAoqiD,CCO,ethanol,AAIsrh,c1c[nH+]c[nH]1,CCCCCCCC(=O)[O-],2,,,,1436,False,c1c[nH+]c[nH]1.CCCCCCCC(=O)[O-],No changes
ulFca,298.15,101.3,853.9,Anouti et al. (2010a),Liquid,0.1011,1H-imidazolium octanoate,,,c1c[nH+]c[nH]1.CCCCCCCC(=O)[O-],1H-imidazolium octanoate,AAoqiD,CCO,ethanol,AAIsrh,c1c[nH+]c[nH]1,CCCCCCCC(=O)[O-],2,,,,1437,False,c1c[nH+]c[nH]1.CCCCCCCC(=O)[O-],No changes
ulFca,298.15,101.3,891.8,Anouti et al. (2010a),Liquid,0.2001,1H-imidazolium octanoate,,,c1c[nH+]c[nH]1.CCCCCCCC(=O)[O-],1H-imidazolium octanoate,AAoqiD,CCO,ethanol,AAIsrh,c1c[nH+]c[nH]1,CCCCCCCC(=O)[O-],2,,,,1438,False,c1c[nH+]c[nH]1.CCCCCCCC(=O)[O-],No changes
ulFca,298.15,101.3,918.8,Anouti et al. (2010a),Liquid,0.2994,1H-imidazolium octanoate,,,c1c[nH+]c[nH]1.CCCCCCCC(=O)[O-],1H-imidazolium octanoate,AAoqiD,CCO,ethanol,AAIsrh,c1c[nH+]c[nH]1,CCCCCCCC(=O)[O-],2,,,,1439,False,c1c[nH+]c[nH]1.CCCCCCCC(=O)[O-],No changes
ulFca,298.15,101.3,938.1,Anouti et al. (2010a),Liquid,0.4001,1H-imidazolium octanoate,,,c1c[nH+]c[nH]1.CCCCCCCC(=O)[O-],1H-imidazolium octanoate,AAoqiD,CCO,ethanol,AAIsrh,c1c[nH+]c[nH]1,CCCCCCCC(=O)[O-],2,,,,1440,False,c1c[nH+]c[nH]1.CCCCCCCC(=O)[O-],No changes
ulFca,298.15,101.3,954.6,Anouti et al. (2010a),Liquid,0.5214,1H-imidazolium octanoate,,,c1c[nH+]c[nH]1.CCCCCCCC(=O)[O-],1H-imidazolium octanoate,AAoqiD,CCO,ethanol,AAIsrh,c1c[nH+]c[nH]1,CCCCCCCC(=O)[O-],2,,,,1441,False,c1c[nH+]c[nH]1.CCCCCCCC(=O)[O-],No changes
ulFca,298.15,101.3,962.7,Anouti et al. (2010a),Liquid,0.6,1H-imidazolium octanoate,,,c1c[nH+]c[nH]1.CCCCCCCC(=O)[O-],1H-imidazolium octanoate,AAoqiD,CCO,ethanol,AAIsrh,c1c[nH+]c[nH]1,CCCCCCCC(=O)[O-],2,,,,1442,False,c1c[nH+]c[nH]1.CCCCCCCC(=O)[O-],No changes
ulFca,298.15,101.3,970.1,Anouti et al. (2010a),Liquid,0.699,1H-imidazolium octanoate,,,c1c[nH+]c[nH]1.CCCCCCCC(=O)[O-],1H-imidazolium octanoate,AAoqiD,CCO,ethanol,AAIsrh,c1c[nH+]c[nH]1,CCCCCCCC(=O)[O-],2,,,,1443,False,c1c[nH+]c[nH]1.CCCCCCCC(=O)[O-],No changes
ulFca,298.15,101.3,976.3,Anouti et al. (2010a),Liquid,0.8016,1H-imidazolium octanoate,,,c1c[nH+]c[nH]1.CCCCCCCC(=O)[O-],1H-imidazolium octanoate,AAoqiD,CCO,ethanol,AAIsrh,c1c[nH+]c[nH]1,CCCCCCCC(=O)[O-],2,,,,1444,False,c1c[nH+]c[nH]1.CCCCCCCC(=O)[O-],No changes
ulFca,298.15,101.3,981.6,Anouti et al. (2010a),Liquid,0.8957,1H-imidazolium octanoate,,,c1c[nH+]c[nH]1.CCCCCCCC(=O)[O-],1H-imidazolium octanoate,AAoqiD,CCO,ethanol,AAIsrh,c1c[nH+]c[nH]1,CCCCCCCC(=O)[O-],2,,,,1445,False,c1c[nH+]c[nH]1.CCCCCCCC(=O)[O-],No changes
ulFca,298.15,101.3,987.0,Anouti et al. (2010a),Liquid,1.0,1H-imidazolium octanoate,,,c1c[nH+]c[nH]1.CCCCCCCC(=O)[O-],1H-imidazolium octanoate,AAoqiD,CCO,ethanol,AAIsrh,c1c[nH+]c[nH]1,CCCCCCCC(=O)[O-],2,,,,1446,False,c1c[nH+]c[nH]1.CCCCCCCC(=O)[O-],No changes
QRfft,298.15,101.0,853.5,Navas et al. (2009),Liquid,0.036,1-butyl-2-methylpyridinium tetrafluoroborate,,,CCCC[n+]1ccccc1C.F[B-](F)(F)F,1-butyl-2-methylpyridinium tetrafluoroborate,AAtepM,CCO,ethanol,AAIsrh,CCCC[n+]1ccccc1C,F[B-](F)(F)F,2,,,,1447,False,CCCC[n+]1ccccc1C.F[B-](F)(F)F,No changes
QRfft,298.15,101.0,882.7,Navas et al. (2009),Liquid,0.0547,1-butyl-2-methylpyridinium tetrafluoroborate,,,CCCC[n+]1ccccc1C.F[B-](F)(F)F,1-butyl-2-methylpyridinium tetrafluoroborate,AAtepM,CCO,ethanol,AAIsrh,CCCC[n+]1ccccc1C,F[B-](F)(F)F,2,,,,1448,False,CCCC[n+]1ccccc1C.F[B-](F)(F)F,No changes
QRfft,298.15,101.0,932.6,Navas et al. (2009),Liquid,0.0948,1-butyl-2-methylpyridinium tetrafluoroborate,,,CCCC[n+]1ccccc1C.F[B-](F)(F)F,1-butyl-2-methylpyridinium tetrafluoroborate,AAtepM,CCO,ethanol,AAIsrh,CCCC[n+]1ccccc1C,F[B-](F)(F)F,2,,,,1449,False,CCCC[n+]1ccccc1C.F[B-](F)(F)F,No changes
QRfft,298.15,101.0,963.6,Navas et al. (2009),Liquid,0.125,1-butyl-2-methylpyridinium tetrafluoroborate,,,CCCC[n+]1ccccc1C.F[B-](F)(F)F,1-butyl-2-methylpyridinium tetrafluoroborate,AAtepM,CCO,ethanol,AAIsrh,CCCC[n+]1ccccc1C,F[B-](F)(F)F,2,,,,1450,False,CCCC[n+]1ccccc1C.F[B-](F)(F)F,No changes
QRfft,298.15,101.0,1058.8,Navas et al. (2009),Liquid,0.2676,1-butyl-2-methylpyridinium tetrafluoroborate,,,CCCC[n+]1ccccc1C.F[B-](F)(F)F,1-butyl-2-methylpyridinium tetrafluoroborate,AAtepM,CCO,ethanol,AAIsrh,CCCC[n+]1ccccc1C,F[B-](F)(F)F,2,,,,1451,False,CCCC[n+]1ccccc1C.F[B-](F)(F)F,No changes
QRfft,298.15,101.0,1104.3,Navas et al. (2009),Liquid,0.386,1-butyl-2-methylpyridinium tetrafluoroborate,,,CCCC[n+]1ccccc1C.F[B-](F)(F)F,1-butyl-2-methylpyridinium tetrafluoroborate,AAtepM,CCO,ethanol,AAIsrh,CCCC[n+]1ccccc1C,F[B-](F)(F)F,2,,,,1452,False,CCCC[n+]1ccccc1C.F[B-](F)(F)F,No changes
QRfft,298.15,101.0,1143.0,Navas et al. (2009),Liquid,0.5402,1-butyl-2-methylpyridinium tetrafluoroborate,,,CCCC[n+]1ccccc1C.F[B-](F)(F)F,1-butyl-2-methylpyridinium tetrafluoroborate,AAtepM,CCO,ethanol,AAIsrh,CCCC[n+]1ccccc1C,F[B-](F)(F)F,2,,,,1453,False,CCCC[n+]1ccccc1C.F[B-](F)(F)F,No changes
QRfft,298.15,101.0,1158.5,Navas et al. (2009),Liquid,0.6246,1-butyl-2-methylpyridinium tetrafluoroborate,,,CCCC[n+]1ccccc1C.F[B-](F)(F)F,1-butyl-2-methylpyridinium tetrafluoroborate,AAtepM,CCO,ethanol,AAIsrh,CCCC[n+]1ccccc1C,F[B-](F)(F)F,2,,,,1454,False,CCCC[n+]1ccccc1C.F[B-](F)(F)F,No changes
QRfft,298.15,101.0,1175.5,Navas et al. (2009),Liquid,0.7398,1-butyl-2-methylpyridinium tetrafluoroborate,,,CCCC[n+]1ccccc1C.F[B-](F)(F)F,1-butyl-2-methylpyridinium tetrafluoroborate,AAtepM,CCO,ethanol,AAIsrh,CCCC[n+]1ccccc1C,F[B-](F)(F)F,2,,,,1455,False,CCCC[n+]1ccccc1C.F[B-](F)(F)F,No changes
QRfft,298.15,101.0,1185.45,Navas et al. (2009),Liquid,0.8245,1-butyl-2-methylpyridinium tetrafluoroborate,,,CCCC[n+]1ccccc1C.F[B-](F)(F)F,1-butyl-2-methylpyridinium tetrafluoroborate,AAtepM,CCO,ethanol,AAIsrh,CCCC[n+]1ccccc1C,F[B-](F)(F)F,2,,,,1456,False,CCCC[n+]1ccccc1C.F[B-](F)(F)F,No changes
QRfft,318.15,101.0,839.0,Navas et al. (2009),Liquid,0.0527,1-butyl-2-methylpyridinium tetrafluoroborate,,,CCCC[n+]1ccccc1C.F[B-](F)(F)F,1-butyl-2-methylpyridinium tetrafluoroborate,AAtepM,CCO,ethanol,AAIsrh,CCCC[n+]1ccccc1C,F[B-](F)(F)F,2,,,,1457,False,CCCC[n+]1ccccc1C.F[B-](F)(F)F,No changes
QRfft,318.15,101.0,889.7,Navas et al. (2009),Liquid,0.1009,1-butyl-2-methylpyridinium tetrafluoroborate,,,CCCC[n+]1ccccc1C.F[B-](F)(F)F,1-butyl-2-methylpyridinium tetrafluoroborate,AAtepM,CCO,ethanol,AAIsrh,CCCC[n+]1ccccc1C,F[B-](F)(F)F,2,,,,1458,False,CCCC[n+]1ccccc1C.F[B-](F)(F)F,No changes
QRfft,318.15,101.0,933.0,Navas et al. (2009),Liquid,0.1518,1-butyl-2-methylpyridinium tetrafluoroborate,,,CCCC[n+]1ccccc1C.F[B-](F)(F)F,1-butyl-2-methylpyridinium tetrafluoroborate,AAtepM,CCO,ethanol,AAIsrh,CCCC[n+]1ccccc1C,F[B-](F)(F)F,2,,,,1459,False,CCCC[n+]1ccccc1C.F[B-](F)(F)F,No changes
QRfft,318.15,101.0,975.1,Navas et al. (2009),Liquid,0.2108,1-butyl-2-methylpyridinium tetrafluoroborate,,,CCCC[n+]1ccccc1C.F[B-](F)(F)F,1-butyl-2-methylpyridinium tetrafluoroborate,AAtepM,CCO,ethanol,AAIsrh,CCCC[n+]1ccccc1C,F[B-](F)(F)F,2,,,,1460,False,CCCC[n+]1ccccc1C.F[B-](F)(F)F,No changes
QRfft,318.15,101.0,1030.5,Navas et al. (2009),Liquid,0.3129,1-butyl-2-methylpyridinium tetrafluoroborate,,,CCCC[n+]1ccccc1C.F[B-](F)(F)F,1-butyl-2-methylpyridinium tetrafluoroborate,AAtepM,CCO,ethanol,AAIsrh,CCCC[n+]1ccccc1C,F[B-](F)(F)F,2,,,,1461,False,CCCC[n+]1ccccc1C.F[B-](F)(F)F,No changes