setid,Temperature (K),Pressure (kPa),Density (kg/m3),reference,phases,Mole fraction,Mole fraction of compound name,Weight fraction,Weight fraction of compound name,IL_SMILES,IL_name,IL_ID,Solvent_SMILES,Solvent_name,Solvent_ID,IL_cation_SMILES,IL_anion_SMILES,IL_component_number,Mole fraction of solvent,IL_MW,Solvent_MW,Record_ID,Contains_Metal,Standardized_IL_SMILES,Changes
vRbvi,328.15,101.0,1146.8,Vercher et al. (2018),Liquid,0.6001,1-butyl-1-methylpyrrolidinium trifluoromethanesulfonate,,,CCCC[N+]1(C)CCCC1.O=S(=O)([O-])C(F)(F)F,1-butyl-1-methylpyrrolidinium trifluoromethanesulfonate,ABEBwg,CC(C)O,propan-2-ol,AALcwx,CCCC[N+]1(C)CCCC1,O=S(=O)([O-])C(F)(F)F,2,,,,877,False,CCCC[N+]1(C)CCCC1.O=S(=O)([O-])C(F)(F)F,No changes
vRbvi,328.15,101.0,1173.0,Vercher et al. (2018),Liquid,0.6999,1-butyl-1-methylpyrrolidinium trifluoromethanesulfonate,,,CCCC[N+]1(C)CCCC1.O=S(=O)([O-])C(F)(F)F,1-butyl-1-methylpyrrolidinium trifluoromethanesulfonate,ABEBwg,CC(C)O,propan-2-ol,AALcwx,CCCC[N+]1(C)CCCC1,O=S(=O)([O-])C(F)(F)F,2,,,,878,False,CCCC[N+]1(C)CCCC1.O=S(=O)([O-])C(F)(F)F,No changes
vRbvi,328.15,101.0,1195.6,Vercher et al. (2018),Liquid,0.8015,1-butyl-1-methylpyrrolidinium trifluoromethanesulfonate,,,CCCC[N+]1(C)CCCC1.O=S(=O)([O-])C(F)(F)F,1-butyl-1-methylpyrrolidinium trifluoromethanesulfonate,ABEBwg,CC(C)O,propan-2-ol,AALcwx,CCCC[N+]1(C)CCCC1,O=S(=O)([O-])C(F)(F)F,2,,,,879,False,CCCC[N+]1(C)CCCC1.O=S(=O)([O-])C(F)(F)F,No changes
vRbvi,328.15,101.0,1205.2,Vercher et al. (2018),Liquid,0.8501,1-butyl-1-methylpyrrolidinium trifluoromethanesulfonate,,,CCCC[N+]1(C)CCCC1.O=S(=O)([O-])C(F)(F)F,1-butyl-1-methylpyrrolidinium trifluoromethanesulfonate,ABEBwg,CC(C)O,propan-2-ol,AALcwx,CCCC[N+]1(C)CCCC1,O=S(=O)([O-])C(F)(F)F,2,,,,880,False,CCCC[N+]1(C)CCCC1.O=S(=O)([O-])C(F)(F)F,No changes
vRbvi,328.15,101.0,1214.1,Vercher et al. (2018),Liquid,0.8993,1-butyl-1-methylpyrrolidinium trifluoromethanesulfonate,,,CCCC[N+]1(C)CCCC1.O=S(=O)([O-])C(F)(F)F,1-butyl-1-methylpyrrolidinium trifluoromethanesulfonate,ABEBwg,CC(C)O,propan-2-ol,AALcwx,CCCC[N+]1(C)CCCC1,O=S(=O)([O-])C(F)(F)F,2,,,,881,False,CCCC[N+]1(C)CCCC1.O=S(=O)([O-])C(F)(F)F,No changes
vRbvi,328.15,101.0,1222.4,Vercher et al. (2018),Liquid,0.9482,1-butyl-1-methylpyrrolidinium trifluoromethanesulfonate,,,CCCC[N+]1(C)CCCC1.O=S(=O)([O-])C(F)(F)F,1-butyl-1-methylpyrrolidinium trifluoromethanesulfonate,ABEBwg,CC(C)O,propan-2-ol,AALcwx,CCCC[N+]1(C)CCCC1,O=S(=O)([O-])C(F)(F)F,2,,,,882,False,CCCC[N+]1(C)CCCC1.O=S(=O)([O-])C(F)(F)F,No changes
vRbvi,328.15,101.0,1230.7,Vercher et al. (2018),Liquid,1.0,1-butyl-1-methylpyrrolidinium trifluoromethanesulfonate,,,CCCC[N+]1(C)CCCC1.O=S(=O)([O-])C(F)(F)F,1-butyl-1-methylpyrrolidinium trifluoromethanesulfonate,ABEBwg,CC(C)O,propan-2-ol,AALcwx,CCCC[N+]1(C)CCCC1,O=S(=O)([O-])C(F)(F)F,2,,,,883,False,CCCC[N+]1(C)CCCC1.O=S(=O)([O-])C(F)(F)F,No changes
DnbGx,288.15,100.0,789.4,Xing et al. (2019a),Liquid,0.0,1-butylpyridinium dicyanamide,,,CCCC[n+]1ccccc1.N#C[N-]C#N,1-butylpyridinium dicyanamide,AAmufZ,CC(C)O,propan-2-ol,AALcwx,CCCC[n+]1ccccc1,N#C[N-]C#N,2,,,,884,False,CCCC[n+]1ccccc1.N#C[N-]C#N,No changes
DnbGx,288.15,100.0,857.6,Xing et al. (2019a),Liquid,0.1008,1-butylpyridinium dicyanamide,,,CCCC[n+]1ccccc1.N#C[N-]C#N,1-butylpyridinium dicyanamide,AAmufZ,CC(C)O,propan-2-ol,AALcwx,CCCC[n+]1ccccc1,N#C[N-]C#N,2,,,,885,False,CCCC[n+]1ccccc1.N#C[N-]C#N,No changes
DnbGx,288.15,100.0,906.7,Xing et al. (2019a),Liquid,0.2007,1-butylpyridinium dicyanamide,,,CCCC[n+]1ccccc1.N#C[N-]C#N,1-butylpyridinium dicyanamide,AAmufZ,CC(C)O,propan-2-ol,AALcwx,CCCC[n+]1ccccc1,N#C[N-]C#N,2,,,,886,False,CCCC[n+]1ccccc1.N#C[N-]C#N,No changes
DnbGx,288.15,100.0,944.6,Xing et al. (2019a),Liquid,0.3005,1-butylpyridinium dicyanamide,,,CCCC[n+]1ccccc1.N#C[N-]C#N,1-butylpyridinium dicyanamide,AAmufZ,CC(C)O,propan-2-ol,AALcwx,CCCC[n+]1ccccc1,N#C[N-]C#N,2,,,,887,False,CCCC[n+]1ccccc1.N#C[N-]C#N,No changes
DnbGx,288.15,100.0,974.5,Xing et al. (2019a),Liquid,0.3999,1-butylpyridinium dicyanamide,,,CCCC[n+]1ccccc1.N#C[N-]C#N,1-butylpyridinium dicyanamide,AAmufZ,CC(C)O,propan-2-ol,AALcwx,CCCC[n+]1ccccc1,N#C[N-]C#N,2,,,,888,False,CCCC[n+]1ccccc1.N#C[N-]C#N,No changes
DnbGx,288.15,100.0,999.4,Xing et al. (2019a),Liquid,0.5005,1-butylpyridinium dicyanamide,,,CCCC[n+]1ccccc1.N#C[N-]C#N,1-butylpyridinium dicyanamide,AAmufZ,CC(C)O,propan-2-ol,AALcwx,CCCC[n+]1ccccc1,N#C[N-]C#N,2,,,,889,False,CCCC[n+]1ccccc1.N#C[N-]C#N,No changes
DnbGx,288.15,100.0,1019.5,Xing et al. (2019a),Liquid,0.5998,1-butylpyridinium dicyanamide,,,CCCC[n+]1ccccc1.N#C[N-]C#N,1-butylpyridinium dicyanamide,AAmufZ,CC(C)O,propan-2-ol,AALcwx,CCCC[n+]1ccccc1,N#C[N-]C#N,2,,,,890,False,CCCC[n+]1ccccc1.N#C[N-]C#N,No changes
DnbGx,288.15,100.0,1036.7,Xing et al. (2019a),Liquid,0.7004,1-butylpyridinium dicyanamide,,,CCCC[n+]1ccccc1.N#C[N-]C#N,1-butylpyridinium dicyanamide,AAmufZ,CC(C)O,propan-2-ol,AALcwx,CCCC[n+]1ccccc1,N#C[N-]C#N,2,,,,891,False,CCCC[n+]1ccccc1.N#C[N-]C#N,No changes
DnbGx,288.15,100.0,1050.7,Xing et al. (2019a),Liquid,0.7972,1-butylpyridinium dicyanamide,,,CCCC[n+]1ccccc1.N#C[N-]C#N,1-butylpyridinium dicyanamide,AAmufZ,CC(C)O,propan-2-ol,AALcwx,CCCC[n+]1ccccc1,N#C[N-]C#N,2,,,,892,False,CCCC[n+]1ccccc1.N#C[N-]C#N,No changes
DnbGx,288.15,100.0,1063.8,Xing et al. (2019a),Liquid,0.9032,1-butylpyridinium dicyanamide,,,CCCC[n+]1ccccc1.N#C[N-]C#N,1-butylpyridinium dicyanamide,AAmufZ,CC(C)O,propan-2-ol,AALcwx,CCCC[n+]1ccccc1,N#C[N-]C#N,2,,,,893,False,CCCC[n+]1ccccc1.N#C[N-]C#N,No changes
DnbGx,288.15,100.0,1075.0,Xing et al. (2019a),Liquid,1.0,1-butylpyridinium dicyanamide,,,CCCC[n+]1ccccc1.N#C[N-]C#N,1-butylpyridinium dicyanamide,AAmufZ,CC(C)O,propan-2-ol,AALcwx,CCCC[n+]1ccccc1,N#C[N-]C#N,2,,,,894,False,CCCC[n+]1ccccc1.N#C[N-]C#N,No changes
DnbGx,293.15,100.0,785.3,Xing et al. (2019a),Liquid,0.0,1-butylpyridinium dicyanamide,,,CCCC[n+]1ccccc1.N#C[N-]C#N,1-butylpyridinium dicyanamide,AAmufZ,CC(C)O,propan-2-ol,AALcwx,CCCC[n+]1ccccc1,N#C[N-]C#N,2,,,,895,False,CCCC[n+]1ccccc1.N#C[N-]C#N,No changes
DnbGx,293.15,100.0,853.8,Xing et al. (2019a),Liquid,0.1008,1-butylpyridinium dicyanamide,,,CCCC[n+]1ccccc1.N#C[N-]C#N,1-butylpyridinium dicyanamide,AAmufZ,CC(C)O,propan-2-ol,AALcwx,CCCC[n+]1ccccc1,N#C[N-]C#N,2,,,,896,False,CCCC[n+]1ccccc1.N#C[N-]C#N,No changes
DnbGx,293.15,100.0,903.1,Xing et al. (2019a),Liquid,0.2007,1-butylpyridinium dicyanamide,,,CCCC[n+]1ccccc1.N#C[N-]C#N,1-butylpyridinium dicyanamide,AAmufZ,CC(C)O,propan-2-ol,AALcwx,CCCC[n+]1ccccc1,N#C[N-]C#N,2,,,,897,False,CCCC[n+]1ccccc1.N#C[N-]C#N,No changes
DnbGx,293.15,100.0,941.1,Xing et al. (2019a),Liquid,0.3005,1-butylpyridinium dicyanamide,,,CCCC[n+]1ccccc1.N#C[N-]C#N,1-butylpyridinium dicyanamide,AAmufZ,CC(C)O,propan-2-ol,AALcwx,CCCC[n+]1ccccc1,N#C[N-]C#N,2,,,,898,False,CCCC[n+]1ccccc1.N#C[N-]C#N,No changes
DnbGx,293.15,100.0,971.2,Xing et al. (2019a),Liquid,0.3999,1-butylpyridinium dicyanamide,,,CCCC[n+]1ccccc1.N#C[N-]C#N,1-butylpyridinium dicyanamide,AAmufZ,CC(C)O,propan-2-ol,AALcwx,CCCC[n+]1ccccc1,N#C[N-]C#N,2,,,,899,False,CCCC[n+]1ccccc1.N#C[N-]C#N,No changes
DnbGx,293.15,100.0,996.1,Xing et al. (2019a),Liquid,0.5005,1-butylpyridinium dicyanamide,,,CCCC[n+]1ccccc1.N#C[N-]C#N,1-butylpyridinium dicyanamide,AAmufZ,CC(C)O,propan-2-ol,AALcwx,CCCC[n+]1ccccc1,N#C[N-]C#N,2,,,,900,False,CCCC[n+]1ccccc1.N#C[N-]C#N,No changes
DnbGx,293.15,100.0,1016.3,Xing et al. (2019a),Liquid,0.5998,1-butylpyridinium dicyanamide,,,CCCC[n+]1ccccc1.N#C[N-]C#N,1-butylpyridinium dicyanamide,AAmufZ,CC(C)O,propan-2-ol,AALcwx,CCCC[n+]1ccccc1,N#C[N-]C#N,2,,,,901,False,CCCC[n+]1ccccc1.N#C[N-]C#N,No changes
DnbGx,293.15,100.0,1033.5,Xing et al. (2019a),Liquid,0.7004,1-butylpyridinium dicyanamide,,,CCCC[n+]1ccccc1.N#C[N-]C#N,1-butylpyridinium dicyanamide,AAmufZ,CC(C)O,propan-2-ol,AALcwx,CCCC[n+]1ccccc1,N#C[N-]C#N,2,,,,902,False,CCCC[n+]1ccccc1.N#C[N-]C#N,No changes
DnbGx,293.15,100.0,1047.5,Xing et al. (2019a),Liquid,0.7972,1-butylpyridinium dicyanamide,,,CCCC[n+]1ccccc1.N#C[N-]C#N,1-butylpyridinium dicyanamide,AAmufZ,CC(C)O,propan-2-ol,AALcwx,CCCC[n+]1ccccc1,N#C[N-]C#N,2,,,,903,False,CCCC[n+]1ccccc1.N#C[N-]C#N,No changes
DnbGx,293.15,100.0,1060.7,Xing et al. (2019a),Liquid,0.9032,1-butylpyridinium dicyanamide,,,CCCC[n+]1ccccc1.N#C[N-]C#N,1-butylpyridinium dicyanamide,AAmufZ,CC(C)O,propan-2-ol,AALcwx,CCCC[n+]1ccccc1,N#C[N-]C#N,2,,,,904,False,CCCC[n+]1ccccc1.N#C[N-]C#N,No changes
DnbGx,293.15,100.0,1071.9,Xing et al. (2019a),Liquid,1.0,1-butylpyridinium dicyanamide,,,CCCC[n+]1ccccc1.N#C[N-]C#N,1-butylpyridinium dicyanamide,AAmufZ,CC(C)O,propan-2-ol,AALcwx,CCCC[n+]1ccccc1,N#C[N-]C#N,2,,,,905,False,CCCC[n+]1ccccc1.N#C[N-]C#N,No changes
DnbGx,298.15,100.0,781.1,Xing et al. (2019a),Liquid,0.0,1-butylpyridinium dicyanamide,,,CCCC[n+]1ccccc1.N#C[N-]C#N,1-butylpyridinium dicyanamide,AAmufZ,CC(C)O,propan-2-ol,AALcwx,CCCC[n+]1ccccc1,N#C[N-]C#N,2,,,,906,False,CCCC[n+]1ccccc1.N#C[N-]C#N,No changes
DnbGx,298.15,100.0,850.0,Xing et al. (2019a),Liquid,0.1008,1-butylpyridinium dicyanamide,,,CCCC[n+]1ccccc1.N#C[N-]C#N,1-butylpyridinium dicyanamide,AAmufZ,CC(C)O,propan-2-ol,AALcwx,CCCC[n+]1ccccc1,N#C[N-]C#N,2,,,,907,False,CCCC[n+]1ccccc1.N#C[N-]C#N,No changes
DnbGx,298.15,100.0,899.5,Xing et al. (2019a),Liquid,0.2007,1-butylpyridinium dicyanamide,,,CCCC[n+]1ccccc1.N#C[N-]C#N,1-butylpyridinium dicyanamide,AAmufZ,CC(C)O,propan-2-ol,AALcwx,CCCC[n+]1ccccc1,N#C[N-]C#N,2,,,,908,False,CCCC[n+]1ccccc1.N#C[N-]C#N,No changes
DnbGx,298.15,100.0,937.7,Xing et al. (2019a),Liquid,0.3005,1-butylpyridinium dicyanamide,,,CCCC[n+]1ccccc1.N#C[N-]C#N,1-butylpyridinium dicyanamide,AAmufZ,CC(C)O,propan-2-ol,AALcwx,CCCC[n+]1ccccc1,N#C[N-]C#N,2,,,,909,False,CCCC[n+]1ccccc1.N#C[N-]C#N,No changes
DnbGx,298.15,100.0,967.8,Xing et al. (2019a),Liquid,0.3999,1-butylpyridinium dicyanamide,,,CCCC[n+]1ccccc1.N#C[N-]C#N,1-butylpyridinium dicyanamide,AAmufZ,CC(C)O,propan-2-ol,AALcwx,CCCC[n+]1ccccc1,N#C[N-]C#N,2,,,,910,False,CCCC[n+]1ccccc1.N#C[N-]C#N,No changes
DnbGx,298.15,100.0,992.9,Xing et al. (2019a),Liquid,0.5005,1-butylpyridinium dicyanamide,,,CCCC[n+]1ccccc1.N#C[N-]C#N,1-butylpyridinium dicyanamide,AAmufZ,CC(C)O,propan-2-ol,AALcwx,CCCC[n+]1ccccc1,N#C[N-]C#N,2,,,,911,False,CCCC[n+]1ccccc1.N#C[N-]C#N,No changes
DnbGx,298.15,100.0,1013.1,Xing et al. (2019a),Liquid,0.5998,1-butylpyridinium dicyanamide,,,CCCC[n+]1ccccc1.N#C[N-]C#N,1-butylpyridinium dicyanamide,AAmufZ,CC(C)O,propan-2-ol,AALcwx,CCCC[n+]1ccccc1,N#C[N-]C#N,2,,,,912,False,CCCC[n+]1ccccc1.N#C[N-]C#N,No changes
DnbGx,298.15,100.0,1030.3,Xing et al. (2019a),Liquid,0.7004,1-butylpyridinium dicyanamide,,,CCCC[n+]1ccccc1.N#C[N-]C#N,1-butylpyridinium dicyanamide,AAmufZ,CC(C)O,propan-2-ol,AALcwx,CCCC[n+]1ccccc1,N#C[N-]C#N,2,,,,913,False,CCCC[n+]1ccccc1.N#C[N-]C#N,No changes
DnbGx,298.15,100.0,1044.4,Xing et al. (2019a),Liquid,0.7972,1-butylpyridinium dicyanamide,,,CCCC[n+]1ccccc1.N#C[N-]C#N,1-butylpyridinium dicyanamide,AAmufZ,CC(C)O,propan-2-ol,AALcwx,CCCC[n+]1ccccc1,N#C[N-]C#N,2,,,,914,False,CCCC[n+]1ccccc1.N#C[N-]C#N,No changes
DnbGx,298.15,100.0,1057.6,Xing et al. (2019a),Liquid,0.9032,1-butylpyridinium dicyanamide,,,CCCC[n+]1ccccc1.N#C[N-]C#N,1-butylpyridinium dicyanamide,AAmufZ,CC(C)O,propan-2-ol,AALcwx,CCCC[n+]1ccccc1,N#C[N-]C#N,2,,,,915,False,CCCC[n+]1ccccc1.N#C[N-]C#N,No changes
DnbGx,298.15,100.0,1068.8,Xing et al. (2019a),Liquid,1.0,1-butylpyridinium dicyanamide,,,CCCC[n+]1ccccc1.N#C[N-]C#N,1-butylpyridinium dicyanamide,AAmufZ,CC(C)O,propan-2-ol,AALcwx,CCCC[n+]1ccccc1,N#C[N-]C#N,2,,,,916,False,CCCC[n+]1ccccc1.N#C[N-]C#N,No changes
DnbGx,303.15,100.0,776.8,Xing et al. (2019a),Liquid,0.0,1-butylpyridinium dicyanamide,,,CCCC[n+]1ccccc1.N#C[N-]C#N,1-butylpyridinium dicyanamide,AAmufZ,CC(C)O,propan-2-ol,AALcwx,CCCC[n+]1ccccc1,N#C[N-]C#N,2,,,,917,False,CCCC[n+]1ccccc1.N#C[N-]C#N,No changes
DnbGx,303.15,100.0,846.1,Xing et al. (2019a),Liquid,0.1008,1-butylpyridinium dicyanamide,,,CCCC[n+]1ccccc1.N#C[N-]C#N,1-butylpyridinium dicyanamide,AAmufZ,CC(C)O,propan-2-ol,AALcwx,CCCC[n+]1ccccc1,N#C[N-]C#N,2,,,,918,False,CCCC[n+]1ccccc1.N#C[N-]C#N,No changes
DnbGx,303.15,100.0,895.9,Xing et al. (2019a),Liquid,0.2007,1-butylpyridinium dicyanamide,,,CCCC[n+]1ccccc1.N#C[N-]C#N,1-butylpyridinium dicyanamide,AAmufZ,CC(C)O,propan-2-ol,AALcwx,CCCC[n+]1ccccc1,N#C[N-]C#N,2,,,,919,False,CCCC[n+]1ccccc1.N#C[N-]C#N,No changes
DnbGx,303.15,100.0,934.2,Xing et al. (2019a),Liquid,0.3005,1-butylpyridinium dicyanamide,,,CCCC[n+]1ccccc1.N#C[N-]C#N,1-butylpyridinium dicyanamide,AAmufZ,CC(C)O,propan-2-ol,AALcwx,CCCC[n+]1ccccc1,N#C[N-]C#N,2,,,,920,False,CCCC[n+]1ccccc1.N#C[N-]C#N,No changes
DnbGx,303.15,100.0,964.5,Xing et al. (2019a),Liquid,0.3999,1-butylpyridinium dicyanamide,,,CCCC[n+]1ccccc1.N#C[N-]C#N,1-butylpyridinium dicyanamide,AAmufZ,CC(C)O,propan-2-ol,AALcwx,CCCC[n+]1ccccc1,N#C[N-]C#N,2,,,,921,False,CCCC[n+]1ccccc1.N#C[N-]C#N,No changes
DnbGx,303.15,100.0,989.6,Xing et al. (2019a),Liquid,0.5005,1-butylpyridinium dicyanamide,,,CCCC[n+]1ccccc1.N#C[N-]C#N,1-butylpyridinium dicyanamide,AAmufZ,CC(C)O,propan-2-ol,AALcwx,CCCC[n+]1ccccc1,N#C[N-]C#N,2,,,,922,False,CCCC[n+]1ccccc1.N#C[N-]C#N,No changes
DnbGx,303.15,100.0,1009.9,Xing et al. (2019a),Liquid,0.5998,1-butylpyridinium dicyanamide,,,CCCC[n+]1ccccc1.N#C[N-]C#N,1-butylpyridinium dicyanamide,AAmufZ,CC(C)O,propan-2-ol,AALcwx,CCCC[n+]1ccccc1,N#C[N-]C#N,2,,,,923,False,CCCC[n+]1ccccc1.N#C[N-]C#N,No changes
DnbGx,303.15,100.0,1027.2,Xing et al. (2019a),Liquid,0.7004,1-butylpyridinium dicyanamide,,,CCCC[n+]1ccccc1.N#C[N-]C#N,1-butylpyridinium dicyanamide,AAmufZ,CC(C)O,propan-2-ol,AALcwx,CCCC[n+]1ccccc1,N#C[N-]C#N,2,,,,924,False,CCCC[n+]1ccccc1.N#C[N-]C#N,No changes
DnbGx,303.15,100.0,1041.2,Xing et al. (2019a),Liquid,0.7972,1-butylpyridinium dicyanamide,,,CCCC[n+]1ccccc1.N#C[N-]C#N,1-butylpyridinium dicyanamide,AAmufZ,CC(C)O,propan-2-ol,AALcwx,CCCC[n+]1ccccc1,N#C[N-]C#N,2,,,,925,False,CCCC[n+]1ccccc1.N#C[N-]C#N,No changes
DnbGx,303.15,100.0,1054.5,Xing et al. (2019a),Liquid,0.9032,1-butylpyridinium dicyanamide,,,CCCC[n+]1ccccc1.N#C[N-]C#N,1-butylpyridinium dicyanamide,AAmufZ,CC(C)O,propan-2-ol,AALcwx,CCCC[n+]1ccccc1,N#C[N-]C#N,2,,,,926,False,CCCC[n+]1ccccc1.N#C[N-]C#N,No changes
DnbGx,303.15,100.0,1065.8,Xing et al. (2019a),Liquid,1.0,1-butylpyridinium dicyanamide,,,CCCC[n+]1ccccc1.N#C[N-]C#N,1-butylpyridinium dicyanamide,AAmufZ,CC(C)O,propan-2-ol,AALcwx,CCCC[n+]1ccccc1,N#C[N-]C#N,2,,,,927,False,CCCC[n+]1ccccc1.N#C[N-]C#N,No changes
DnbGx,308.15,100.0,772.5,Xing et al. (2019a),Liquid,0.0,1-butylpyridinium dicyanamide,,,CCCC[n+]1ccccc1.N#C[N-]C#N,1-butylpyridinium dicyanamide,AAmufZ,CC(C)O,propan-2-ol,AALcwx,CCCC[n+]1ccccc1,N#C[N-]C#N,2,,,,928,False,CCCC[n+]1ccccc1.N#C[N-]C#N,No changes
DnbGx,308.15,100.0,842.3,Xing et al. (2019a),Liquid,0.1008,1-butylpyridinium dicyanamide,,,CCCC[n+]1ccccc1.N#C[N-]C#N,1-butylpyridinium dicyanamide,AAmufZ,CC(C)O,propan-2-ol,AALcwx,CCCC[n+]1ccccc1,N#C[N-]C#N,2,,,,929,False,CCCC[n+]1ccccc1.N#C[N-]C#N,No changes
DnbGx,308.15,100.0,892.3,Xing et al. (2019a),Liquid,0.2007,1-butylpyridinium dicyanamide,,,CCCC[n+]1ccccc1.N#C[N-]C#N,1-butylpyridinium dicyanamide,AAmufZ,CC(C)O,propan-2-ol,AALcwx,CCCC[n+]1ccccc1,N#C[N-]C#N,2,,,,930,False,CCCC[n+]1ccccc1.N#C[N-]C#N,No changes
DnbGx,308.15,100.0,930.8,Xing et al. (2019a),Liquid,0.3005,1-butylpyridinium dicyanamide,,,CCCC[n+]1ccccc1.N#C[N-]C#N,1-butylpyridinium dicyanamide,AAmufZ,CC(C)O,propan-2-ol,AALcwx,CCCC[n+]1ccccc1,N#C[N-]C#N,2,,,,931,False,CCCC[n+]1ccccc1.N#C[N-]C#N,No changes
DnbGx,308.15,100.0,961.2,Xing et al. (2019a),Liquid,0.3999,1-butylpyridinium dicyanamide,,,CCCC[n+]1ccccc1.N#C[N-]C#N,1-butylpyridinium dicyanamide,AAmufZ,CC(C)O,propan-2-ol,AALcwx,CCCC[n+]1ccccc1,N#C[N-]C#N,2,,,,932,False,CCCC[n+]1ccccc1.N#C[N-]C#N,No changes
DnbGx,308.15,100.0,986.4,Xing et al. (2019a),Liquid,0.5005,1-butylpyridinium dicyanamide,,,CCCC[n+]1ccccc1.N#C[N-]C#N,1-butylpyridinium dicyanamide,AAmufZ,CC(C)O,propan-2-ol,AALcwx,CCCC[n+]1ccccc1,N#C[N-]C#N,2,,,,933,False,CCCC[n+]1ccccc1.N#C[N-]C#N,No changes
DnbGx,308.15,100.0,1006.7,Xing et al. (2019a),Liquid,0.5998,1-butylpyridinium dicyanamide,,,CCCC[n+]1ccccc1.N#C[N-]C#N,1-butylpyridinium dicyanamide,AAmufZ,CC(C)O,propan-2-ol,AALcwx,CCCC[n+]1ccccc1,N#C[N-]C#N,2,,,,934,False,CCCC[n+]1ccccc1.N#C[N-]C#N,No changes
DnbGx,308.15,100.0,1024.0,Xing et al. (2019a),Liquid,0.7004,1-butylpyridinium dicyanamide,,,CCCC[n+]1ccccc1.N#C[N-]C#N,1-butylpyridinium dicyanamide,AAmufZ,CC(C)O,propan-2-ol,AALcwx,CCCC[n+]1ccccc1,N#C[N-]C#N,2,,,,935,False,CCCC[n+]1ccccc1.N#C[N-]C#N,No changes
DnbGx,308.15,100.0,1038.1,Xing et al. (2019a),Liquid,0.7972,1-butylpyridinium dicyanamide,,,CCCC[n+]1ccccc1.N#C[N-]C#N,1-butylpyridinium dicyanamide,AAmufZ,CC(C)O,propan-2-ol,AALcwx,CCCC[n+]1ccccc1,N#C[N-]C#N,2,,,,936,False,CCCC[n+]1ccccc1.N#C[N-]C#N,No changes
DnbGx,308.15,100.0,1051.4,Xing et al. (2019a),Liquid,0.9032,1-butylpyridinium dicyanamide,,,CCCC[n+]1ccccc1.N#C[N-]C#N,1-butylpyridinium dicyanamide,AAmufZ,CC(C)O,propan-2-ol,AALcwx,CCCC[n+]1ccccc1,N#C[N-]C#N,2,,,,937,False,CCCC[n+]1ccccc1.N#C[N-]C#N,No changes
DnbGx,308.15,100.0,1062.7,Xing et al. (2019a),Liquid,1.0,1-butylpyridinium dicyanamide,,,CCCC[n+]1ccccc1.N#C[N-]C#N,1-butylpyridinium dicyanamide,AAmufZ,CC(C)O,propan-2-ol,AALcwx,CCCC[n+]1ccccc1,N#C[N-]C#N,2,,,,938,False,CCCC[n+]1ccccc1.N#C[N-]C#N,No changes
DnbGx,313.15,100.0,768.0,Xing et al. (2019a),Liquid,0.0,1-butylpyridinium dicyanamide,,,CCCC[n+]1ccccc1.N#C[N-]C#N,1-butylpyridinium dicyanamide,AAmufZ,CC(C)O,propan-2-ol,AALcwx,CCCC[n+]1ccccc1,N#C[N-]C#N,2,,,,939,False,CCCC[n+]1ccccc1.N#C[N-]C#N,No changes
DnbGx,313.15,100.0,838.4,Xing et al. (2019a),Liquid,0.1008,1-butylpyridinium dicyanamide,,,CCCC[n+]1ccccc1.N#C[N-]C#N,1-butylpyridinium dicyanamide,AAmufZ,CC(C)O,propan-2-ol,AALcwx,CCCC[n+]1ccccc1,N#C[N-]C#N,2,,,,940,False,CCCC[n+]1ccccc1.N#C[N-]C#N,No changes
DnbGx,313.15,100.0,888.7,Xing et al. (2019a),Liquid,0.2007,1-butylpyridinium dicyanamide,,,CCCC[n+]1ccccc1.N#C[N-]C#N,1-butylpyridinium dicyanamide,AAmufZ,CC(C)O,propan-2-ol,AALcwx,CCCC[n+]1ccccc1,N#C[N-]C#N,2,,,,941,False,CCCC[n+]1ccccc1.N#C[N-]C#N,No changes
DnbGx,313.15,100.0,927.4,Xing et al. (2019a),Liquid,0.3005,1-butylpyridinium dicyanamide,,,CCCC[n+]1ccccc1.N#C[N-]C#N,1-butylpyridinium dicyanamide,AAmufZ,CC(C)O,propan-2-ol,AALcwx,CCCC[n+]1ccccc1,N#C[N-]C#N,2,,,,942,False,CCCC[n+]1ccccc1.N#C[N-]C#N,No changes
DnbGx,313.15,100.0,957.9,Xing et al. (2019a),Liquid,0.3999,1-butylpyridinium dicyanamide,,,CCCC[n+]1ccccc1.N#C[N-]C#N,1-butylpyridinium dicyanamide,AAmufZ,CC(C)O,propan-2-ol,AALcwx,CCCC[n+]1ccccc1,N#C[N-]C#N,2,,,,943,False,CCCC[n+]1ccccc1.N#C[N-]C#N,No changes
DnbGx,313.15,100.0,983.1,Xing et al. (2019a),Liquid,0.5005,1-butylpyridinium dicyanamide,,,CCCC[n+]1ccccc1.N#C[N-]C#N,1-butylpyridinium dicyanamide,AAmufZ,CC(C)O,propan-2-ol,AALcwx,CCCC[n+]1ccccc1,N#C[N-]C#N,2,,,,944,False,CCCC[n+]1ccccc1.N#C[N-]C#N,No changes
DnbGx,313.15,100.0,1003.6,Xing et al. (2019a),Liquid,0.5998,1-butylpyridinium dicyanamide,,,CCCC[n+]1ccccc1.N#C[N-]C#N,1-butylpyridinium dicyanamide,AAmufZ,CC(C)O,propan-2-ol,AALcwx,CCCC[n+]1ccccc1,N#C[N-]C#N,2,,,,945,False,CCCC[n+]1ccccc1.N#C[N-]C#N,No changes
DnbGx,313.15,100.0,1020.9,Xing et al. (2019a),Liquid,0.7004,1-butylpyridinium dicyanamide,,,CCCC[n+]1ccccc1.N#C[N-]C#N,1-butylpyridinium dicyanamide,AAmufZ,CC(C)O,propan-2-ol,AALcwx,CCCC[n+]1ccccc1,N#C[N-]C#N,2,,,,946,False,CCCC[n+]1ccccc1.N#C[N-]C#N,No changes
DnbGx,313.15,100.0,1035.0,Xing et al. (2019a),Liquid,0.7972,1-butylpyridinium dicyanamide,,,CCCC[n+]1ccccc1.N#C[N-]C#N,1-butylpyridinium dicyanamide,AAmufZ,CC(C)O,propan-2-ol,AALcwx,CCCC[n+]1ccccc1,N#C[N-]C#N,2,,,,947,False,CCCC[n+]1ccccc1.N#C[N-]C#N,No changes
DnbGx,313.15,100.0,1048.3,Xing et al. (2019a),Liquid,0.9032,1-butylpyridinium dicyanamide,,,CCCC[n+]1ccccc1.N#C[N-]C#N,1-butylpyridinium dicyanamide,AAmufZ,CC(C)O,propan-2-ol,AALcwx,CCCC[n+]1ccccc1,N#C[N-]C#N,2,,,,948,False,CCCC[n+]1ccccc1.N#C[N-]C#N,No changes