setid,Temperature (K),Pressure (kPa),Density (kg/m3),reference,phases,Mole fraction,Mole fraction of compound name,Weight fraction,Weight fraction of compound name,IL_SMILES,IL_name,IL_ID,Solvent_SMILES,Solvent_name,Solvent_ID,IL_cation_SMILES,IL_anion_SMILES,IL_component_number,Mole fraction of solvent,IL_MW,Solvent_MW,Record_ID,Contains_Metal,Standardized_IL_SMILES,Changes
XeZfm,318.15,100.0,1054.7,Heydarian et al. (2019),Liquid,0.5607,1-butyl-3-methylimidazolium nitrate,,,CCCC[n+]1ccn(C)c1.O=[N+]([O-])[O-],1-butyl-3-methylimidazolium nitrate,AAmkVH,CC(C)O,propan-2-ol,AALcwx,CCCC[n+]1ccn(C)c1,O=[N+]([O-])[O-],2,,,,1129,False,CCCC[n+]1ccn(C)c1.O=[N+]([O-])[O-],No changes
XeZfm,318.15,100.0,1078.3,Heydarian et al. (2019),Liquid,0.6506,1-butyl-3-methylimidazolium nitrate,,,CCCC[n+]1ccn(C)c1.O=[N+]([O-])[O-],1-butyl-3-methylimidazolium nitrate,AAmkVH,CC(C)O,propan-2-ol,AALcwx,CCCC[n+]1ccn(C)c1,O=[N+]([O-])[O-],2,,,,1130,False,CCCC[n+]1ccn(C)c1.O=[N+]([O-])[O-],No changes
XeZfm,318.15,100.0,1098.9,Heydarian et al. (2019),Liquid,0.7413,1-butyl-3-methylimidazolium nitrate,,,CCCC[n+]1ccn(C)c1.O=[N+]([O-])[O-],1-butyl-3-methylimidazolium nitrate,AAmkVH,CC(C)O,propan-2-ol,AALcwx,CCCC[n+]1ccn(C)c1,O=[N+]([O-])[O-],2,,,,1131,False,CCCC[n+]1ccn(C)c1.O=[N+]([O-])[O-],No changes
XeZfm,318.15,100.0,1120.5,Heydarian et al. (2019),Liquid,0.8515,1-butyl-3-methylimidazolium nitrate,,,CCCC[n+]1ccn(C)c1.O=[N+]([O-])[O-],1-butyl-3-methylimidazolium nitrate,AAmkVH,CC(C)O,propan-2-ol,AALcwx,CCCC[n+]1ccn(C)c1,O=[N+]([O-])[O-],2,,,,1132,False,CCCC[n+]1ccn(C)c1.O=[N+]([O-])[O-],No changes
XeZfm,318.15,100.0,1135.0,Heydarian et al. (2019),Liquid,0.9396,1-butyl-3-methylimidazolium nitrate,,,CCCC[n+]1ccn(C)c1.O=[N+]([O-])[O-],1-butyl-3-methylimidazolium nitrate,AAmkVH,CC(C)O,propan-2-ol,AALcwx,CCCC[n+]1ccn(C)c1,O=[N+]([O-])[O-],2,,,,1133,False,CCCC[n+]1ccn(C)c1.O=[N+]([O-])[O-],No changes
XeZfm,318.15,100.0,1143.8,Heydarian et al. (2019),Liquid,1.0,1-butyl-3-methylimidazolium nitrate,,,CCCC[n+]1ccn(C)c1.O=[N+]([O-])[O-],1-butyl-3-methylimidazolium nitrate,AAmkVH,CC(C)O,propan-2-ol,AALcwx,CCCC[n+]1ccn(C)c1,O=[N+]([O-])[O-],2,,,,1134,False,CCCC[n+]1ccn(C)c1.O=[N+]([O-])[O-],No changes
XeZfm,323.15,100.0,758.8,Heydarian et al. (2019),Liquid,0.0,1-butyl-3-methylimidazolium nitrate,,,CCCC[n+]1ccn(C)c1.O=[N+]([O-])[O-],1-butyl-3-methylimidazolium nitrate,AAmkVH,CC(C)O,propan-2-ol,AALcwx,CCCC[n+]1ccn(C)c1,O=[N+]([O-])[O-],2,,,,1135,False,CCCC[n+]1ccn(C)c1.O=[N+]([O-])[O-],No changes
XeZfm,323.15,100.0,829.5,Heydarian et al. (2019),Liquid,0.0815,1-butyl-3-methylimidazolium nitrate,,,CCCC[n+]1ccn(C)c1.O=[N+]([O-])[O-],1-butyl-3-methylimidazolium nitrate,AAmkVH,CC(C)O,propan-2-ol,AALcwx,CCCC[n+]1ccn(C)c1,O=[N+]([O-])[O-],2,,,,1136,False,CCCC[n+]1ccn(C)c1.O=[N+]([O-])[O-],No changes
XeZfm,323.15,100.0,883.3,Heydarian et al. (2019),Liquid,0.1596,1-butyl-3-methylimidazolium nitrate,,,CCCC[n+]1ccn(C)c1.O=[N+]([O-])[O-],1-butyl-3-methylimidazolium nitrate,AAmkVH,CC(C)O,propan-2-ol,AALcwx,CCCC[n+]1ccn(C)c1,O=[N+]([O-])[O-],2,,,,1137,False,CCCC[n+]1ccn(C)c1.O=[N+]([O-])[O-],No changes
XeZfm,323.15,100.0,929.2,Heydarian et al. (2019),Liquid,0.2405,1-butyl-3-methylimidazolium nitrate,,,CCCC[n+]1ccn(C)c1.O=[N+]([O-])[O-],1-butyl-3-methylimidazolium nitrate,AAmkVH,CC(C)O,propan-2-ol,AALcwx,CCCC[n+]1ccn(C)c1,O=[N+]([O-])[O-],2,,,,1138,False,CCCC[n+]1ccn(C)c1.O=[N+]([O-])[O-],No changes
XeZfm,323.15,100.0,979.5,Heydarian et al. (2019),Liquid,0.3495,1-butyl-3-methylimidazolium nitrate,,,CCCC[n+]1ccn(C)c1.O=[N+]([O-])[O-],1-butyl-3-methylimidazolium nitrate,AAmkVH,CC(C)O,propan-2-ol,AALcwx,CCCC[n+]1ccn(C)c1,O=[N+]([O-])[O-],2,,,,1139,False,CCCC[n+]1ccn(C)c1.O=[N+]([O-])[O-],No changes
XeZfm,323.15,100.0,1014.1,Heydarian et al. (2019),Liquid,0.4405,1-butyl-3-methylimidazolium nitrate,,,CCCC[n+]1ccn(C)c1.O=[N+]([O-])[O-],1-butyl-3-methylimidazolium nitrate,AAmkVH,CC(C)O,propan-2-ol,AALcwx,CCCC[n+]1ccn(C)c1,O=[N+]([O-])[O-],2,,,,1140,False,CCCC[n+]1ccn(C)c1.O=[N+]([O-])[O-],No changes
XeZfm,323.15,100.0,1051.7,Heydarian et al. (2019),Liquid,0.5607,1-butyl-3-methylimidazolium nitrate,,,CCCC[n+]1ccn(C)c1.O=[N+]([O-])[O-],1-butyl-3-methylimidazolium nitrate,AAmkVH,CC(C)O,propan-2-ol,AALcwx,CCCC[n+]1ccn(C)c1,O=[N+]([O-])[O-],2,,,,1141,False,CCCC[n+]1ccn(C)c1.O=[N+]([O-])[O-],No changes
XeZfm,323.15,100.0,1075.4,Heydarian et al. (2019),Liquid,0.6506,1-butyl-3-methylimidazolium nitrate,,,CCCC[n+]1ccn(C)c1.O=[N+]([O-])[O-],1-butyl-3-methylimidazolium nitrate,AAmkVH,CC(C)O,propan-2-ol,AALcwx,CCCC[n+]1ccn(C)c1,O=[N+]([O-])[O-],2,,,,1142,False,CCCC[n+]1ccn(C)c1.O=[N+]([O-])[O-],No changes
XeZfm,323.15,100.0,1096.1,Heydarian et al. (2019),Liquid,0.7413,1-butyl-3-methylimidazolium nitrate,,,CCCC[n+]1ccn(C)c1.O=[N+]([O-])[O-],1-butyl-3-methylimidazolium nitrate,AAmkVH,CC(C)O,propan-2-ol,AALcwx,CCCC[n+]1ccn(C)c1,O=[N+]([O-])[O-],2,,,,1143,False,CCCC[n+]1ccn(C)c1.O=[N+]([O-])[O-],No changes
XeZfm,323.15,100.0,1117.8,Heydarian et al. (2019),Liquid,0.8515,1-butyl-3-methylimidazolium nitrate,,,CCCC[n+]1ccn(C)c1.O=[N+]([O-])[O-],1-butyl-3-methylimidazolium nitrate,AAmkVH,CC(C)O,propan-2-ol,AALcwx,CCCC[n+]1ccn(C)c1,O=[N+]([O-])[O-],2,,,,1144,False,CCCC[n+]1ccn(C)c1.O=[N+]([O-])[O-],No changes
XeZfm,323.15,100.0,1132.5,Heydarian et al. (2019),Liquid,0.9396,1-butyl-3-methylimidazolium nitrate,,,CCCC[n+]1ccn(C)c1.O=[N+]([O-])[O-],1-butyl-3-methylimidazolium nitrate,AAmkVH,CC(C)O,propan-2-ol,AALcwx,CCCC[n+]1ccn(C)c1,O=[N+]([O-])[O-],2,,,,1145,False,CCCC[n+]1ccn(C)c1.O=[N+]([O-])[O-],No changes
XeZfm,323.15,100.0,1141.2,Heydarian et al. (2019),Liquid,1.0,1-butyl-3-methylimidazolium nitrate,,,CCCC[n+]1ccn(C)c1.O=[N+]([O-])[O-],1-butyl-3-methylimidazolium nitrate,AAmkVH,CC(C)O,propan-2-ol,AALcwx,CCCC[n+]1ccn(C)c1,O=[N+]([O-])[O-],2,,,,1146,False,CCCC[n+]1ccn(C)c1.O=[N+]([O-])[O-],No changes
kvnyW,288.15,100.0,789.41,Xing et al. (2017),Liquid,0.0,1-ethylpyridinium dicyanamide,,,CC[n+]1ccccc1.N#C[N-]C#N,1-ethylpyridinium dicyanamide,AAhaEl,CC(C)O,propan-2-ol,AALcwx,CC[n+]1ccccc1,N#C[N-]C#N,2,,,,1147,False,CC[n+]1ccccc1.N#C[N-]C#N,No changes
kvnyW,288.15,100.0,858.24,Xing et al. (2017),Liquid,0.1003,1-ethylpyridinium dicyanamide,,,CC[n+]1ccccc1.N#C[N-]C#N,1-ethylpyridinium dicyanamide,AAhaEl,CC(C)O,propan-2-ol,AALcwx,CC[n+]1ccccc1,N#C[N-]C#N,2,,,,1148,False,CC[n+]1ccccc1.N#C[N-]C#N,No changes
kvnyW,288.15,100.0,911.58,Xing et al. (2017),Liquid,0.1993,1-ethylpyridinium dicyanamide,,,CC[n+]1ccccc1.N#C[N-]C#N,1-ethylpyridinium dicyanamide,AAhaEl,CC(C)O,propan-2-ol,AALcwx,CC[n+]1ccccc1,N#C[N-]C#N,2,,,,1149,False,CC[n+]1ccccc1.N#C[N-]C#N,No changes
kvnyW,288.15,100.0,955.4,Xing et al. (2017),Liquid,0.2994,1-ethylpyridinium dicyanamide,,,CC[n+]1ccccc1.N#C[N-]C#N,1-ethylpyridinium dicyanamide,AAhaEl,CC(C)O,propan-2-ol,AALcwx,CC[n+]1ccccc1,N#C[N-]C#N,2,,,,1150,False,CC[n+]1ccccc1.N#C[N-]C#N,No changes
kvnyW,288.15,100.0,991.9,Xing et al. (2017),Liquid,0.4002,1-ethylpyridinium dicyanamide,,,CC[n+]1ccccc1.N#C[N-]C#N,1-ethylpyridinium dicyanamide,AAhaEl,CC(C)O,propan-2-ol,AALcwx,CC[n+]1ccccc1,N#C[N-]C#N,2,,,,1151,False,CC[n+]1ccccc1.N#C[N-]C#N,No changes
kvnyW,288.15,100.0,1022.5,Xing et al. (2017),Liquid,0.501,1-ethylpyridinium dicyanamide,,,CC[n+]1ccccc1.N#C[N-]C#N,1-ethylpyridinium dicyanamide,AAhaEl,CC(C)O,propan-2-ol,AALcwx,CC[n+]1ccccc1,N#C[N-]C#N,2,,,,1152,False,CC[n+]1ccccc1.N#C[N-]C#N,No changes
kvnyW,288.15,100.0,1047.4,Xing et al. (2017),Liquid,0.5977,1-ethylpyridinium dicyanamide,,,CC[n+]1ccccc1.N#C[N-]C#N,1-ethylpyridinium dicyanamide,AAhaEl,CC(C)O,propan-2-ol,AALcwx,CC[n+]1ccccc1,N#C[N-]C#N,2,,,,1153,False,CC[n+]1ccccc1.N#C[N-]C#N,No changes
kvnyW,288.15,100.0,1070.5,Xing et al. (2017),Liquid,0.7003,1-ethylpyridinium dicyanamide,,,CC[n+]1ccccc1.N#C[N-]C#N,1-ethylpyridinium dicyanamide,AAhaEl,CC(C)O,propan-2-ol,AALcwx,CC[n+]1ccccc1,N#C[N-]C#N,2,,,,1154,False,CC[n+]1ccccc1.N#C[N-]C#N,No changes
kvnyW,288.15,100.0,1089.5,Xing et al. (2017),Liquid,0.8001,1-ethylpyridinium dicyanamide,,,CC[n+]1ccccc1.N#C[N-]C#N,1-ethylpyridinium dicyanamide,AAhaEl,CC(C)O,propan-2-ol,AALcwx,CC[n+]1ccccc1,N#C[N-]C#N,2,,,,1155,False,CC[n+]1ccccc1.N#C[N-]C#N,No changes
kvnyW,288.15,100.0,1106.7,Xing et al. (2017),Liquid,0.8945,1-ethylpyridinium dicyanamide,,,CC[n+]1ccccc1.N#C[N-]C#N,1-ethylpyridinium dicyanamide,AAhaEl,CC(C)O,propan-2-ol,AALcwx,CC[n+]1ccccc1,N#C[N-]C#N,2,,,,1156,False,CC[n+]1ccccc1.N#C[N-]C#N,No changes
kvnyW,288.15,100.0,1124.7,Xing et al. (2017),Liquid,1.0,1-ethylpyridinium dicyanamide,,,CC[n+]1ccccc1.N#C[N-]C#N,1-ethylpyridinium dicyanamide,AAhaEl,CC(C)O,propan-2-ol,AALcwx,CC[n+]1ccccc1,N#C[N-]C#N,2,,,,1157,False,CC[n+]1ccccc1.N#C[N-]C#N,No changes
kvnyW,293.15,100.0,785.29,Xing et al. (2017),Liquid,0.0,1-ethylpyridinium dicyanamide,,,CC[n+]1ccccc1.N#C[N-]C#N,1-ethylpyridinium dicyanamide,AAhaEl,CC(C)O,propan-2-ol,AALcwx,CC[n+]1ccccc1,N#C[N-]C#N,2,,,,1158,False,CC[n+]1ccccc1.N#C[N-]C#N,No changes
kvnyW,293.15,100.0,854.42,Xing et al. (2017),Liquid,0.1003,1-ethylpyridinium dicyanamide,,,CC[n+]1ccccc1.N#C[N-]C#N,1-ethylpyridinium dicyanamide,AAhaEl,CC(C)O,propan-2-ol,AALcwx,CC[n+]1ccccc1,N#C[N-]C#N,2,,,,1159,False,CC[n+]1ccccc1.N#C[N-]C#N,No changes
kvnyW,293.15,100.0,907.98,Xing et al. (2017),Liquid,0.1993,1-ethylpyridinium dicyanamide,,,CC[n+]1ccccc1.N#C[N-]C#N,1-ethylpyridinium dicyanamide,AAhaEl,CC(C)O,propan-2-ol,AALcwx,CC[n+]1ccccc1,N#C[N-]C#N,2,,,,1160,False,CC[n+]1ccccc1.N#C[N-]C#N,No changes
kvnyW,293.15,100.0,951.9,Xing et al. (2017),Liquid,0.2994,1-ethylpyridinium dicyanamide,,,CC[n+]1ccccc1.N#C[N-]C#N,1-ethylpyridinium dicyanamide,AAhaEl,CC(C)O,propan-2-ol,AALcwx,CC[n+]1ccccc1,N#C[N-]C#N,2,,,,1161,False,CC[n+]1ccccc1.N#C[N-]C#N,No changes
kvnyW,293.15,100.0,988.5,Xing et al. (2017),Liquid,0.4002,1-ethylpyridinium dicyanamide,,,CC[n+]1ccccc1.N#C[N-]C#N,1-ethylpyridinium dicyanamide,AAhaEl,CC(C)O,propan-2-ol,AALcwx,CC[n+]1ccccc1,N#C[N-]C#N,2,,,,1162,False,CC[n+]1ccccc1.N#C[N-]C#N,No changes
kvnyW,293.15,100.0,1019.2,Xing et al. (2017),Liquid,0.501,1-ethylpyridinium dicyanamide,,,CC[n+]1ccccc1.N#C[N-]C#N,1-ethylpyridinium dicyanamide,AAhaEl,CC(C)O,propan-2-ol,AALcwx,CC[n+]1ccccc1,N#C[N-]C#N,2,,,,1163,False,CC[n+]1ccccc1.N#C[N-]C#N,No changes
kvnyW,293.15,100.0,1044.1,Xing et al. (2017),Liquid,0.5977,1-ethylpyridinium dicyanamide,,,CC[n+]1ccccc1.N#C[N-]C#N,1-ethylpyridinium dicyanamide,AAhaEl,CC(C)O,propan-2-ol,AALcwx,CC[n+]1ccccc1,N#C[N-]C#N,2,,,,1164,False,CC[n+]1ccccc1.N#C[N-]C#N,No changes
kvnyW,293.15,100.0,1067.3,Xing et al. (2017),Liquid,0.7003,1-ethylpyridinium dicyanamide,,,CC[n+]1ccccc1.N#C[N-]C#N,1-ethylpyridinium dicyanamide,AAhaEl,CC(C)O,propan-2-ol,AALcwx,CC[n+]1ccccc1,N#C[N-]C#N,2,,,,1165,False,CC[n+]1ccccc1.N#C[N-]C#N,No changes
kvnyW,293.15,100.0,1086.3,Xing et al. (2017),Liquid,0.8001,1-ethylpyridinium dicyanamide,,,CC[n+]1ccccc1.N#C[N-]C#N,1-ethylpyridinium dicyanamide,AAhaEl,CC(C)O,propan-2-ol,AALcwx,CC[n+]1ccccc1,N#C[N-]C#N,2,,,,1166,False,CC[n+]1ccccc1.N#C[N-]C#N,No changes
kvnyW,293.15,100.0,1103.5,Xing et al. (2017),Liquid,0.8945,1-ethylpyridinium dicyanamide,,,CC[n+]1ccccc1.N#C[N-]C#N,1-ethylpyridinium dicyanamide,AAhaEl,CC(C)O,propan-2-ol,AALcwx,CC[n+]1ccccc1,N#C[N-]C#N,2,,,,1167,False,CC[n+]1ccccc1.N#C[N-]C#N,No changes
kvnyW,293.15,100.0,1121.6,Xing et al. (2017),Liquid,1.0,1-ethylpyridinium dicyanamide,,,CC[n+]1ccccc1.N#C[N-]C#N,1-ethylpyridinium dicyanamide,AAhaEl,CC(C)O,propan-2-ol,AALcwx,CC[n+]1ccccc1,N#C[N-]C#N,2,,,,1168,False,CC[n+]1ccccc1.N#C[N-]C#N,No changes
kvnyW,298.15,100.0,781.08,Xing et al. (2017),Liquid,0.0,1-ethylpyridinium dicyanamide,,,CC[n+]1ccccc1.N#C[N-]C#N,1-ethylpyridinium dicyanamide,AAhaEl,CC(C)O,propan-2-ol,AALcwx,CC[n+]1ccccc1,N#C[N-]C#N,2,,,,1169,False,CC[n+]1ccccc1.N#C[N-]C#N,No changes
kvnyW,298.15,100.0,850.58,Xing et al. (2017),Liquid,0.1003,1-ethylpyridinium dicyanamide,,,CC[n+]1ccccc1.N#C[N-]C#N,1-ethylpyridinium dicyanamide,AAhaEl,CC(C)O,propan-2-ol,AALcwx,CC[n+]1ccccc1,N#C[N-]C#N,2,,,,1170,False,CC[n+]1ccccc1.N#C[N-]C#N,No changes
kvnyW,298.15,100.0,904.35,Xing et al. (2017),Liquid,0.1993,1-ethylpyridinium dicyanamide,,,CC[n+]1ccccc1.N#C[N-]C#N,1-ethylpyridinium dicyanamide,AAhaEl,CC(C)O,propan-2-ol,AALcwx,CC[n+]1ccccc1,N#C[N-]C#N,2,,,,1171,False,CC[n+]1ccccc1.N#C[N-]C#N,No changes
kvnyW,298.15,100.0,948.5,Xing et al. (2017),Liquid,0.2994,1-ethylpyridinium dicyanamide,,,CC[n+]1ccccc1.N#C[N-]C#N,1-ethylpyridinium dicyanamide,AAhaEl,CC(C)O,propan-2-ol,AALcwx,CC[n+]1ccccc1,N#C[N-]C#N,2,,,,1172,False,CC[n+]1ccccc1.N#C[N-]C#N,No changes
kvnyW,298.15,100.0,985.1,Xing et al. (2017),Liquid,0.4002,1-ethylpyridinium dicyanamide,,,CC[n+]1ccccc1.N#C[N-]C#N,1-ethylpyridinium dicyanamide,AAhaEl,CC(C)O,propan-2-ol,AALcwx,CC[n+]1ccccc1,N#C[N-]C#N,2,,,,1173,False,CC[n+]1ccccc1.N#C[N-]C#N,No changes
kvnyW,298.15,100.0,1015.9,Xing et al. (2017),Liquid,0.501,1-ethylpyridinium dicyanamide,,,CC[n+]1ccccc1.N#C[N-]C#N,1-ethylpyridinium dicyanamide,AAhaEl,CC(C)O,propan-2-ol,AALcwx,CC[n+]1ccccc1,N#C[N-]C#N,2,,,,1174,False,CC[n+]1ccccc1.N#C[N-]C#N,No changes
kvnyW,298.15,100.0,1040.8,Xing et al. (2017),Liquid,0.5977,1-ethylpyridinium dicyanamide,,,CC[n+]1ccccc1.N#C[N-]C#N,1-ethylpyridinium dicyanamide,AAhaEl,CC(C)O,propan-2-ol,AALcwx,CC[n+]1ccccc1,N#C[N-]C#N,2,,,,1175,False,CC[n+]1ccccc1.N#C[N-]C#N,No changes
kvnyW,298.15,100.0,1064.1,Xing et al. (2017),Liquid,0.7003,1-ethylpyridinium dicyanamide,,,CC[n+]1ccccc1.N#C[N-]C#N,1-ethylpyridinium dicyanamide,AAhaEl,CC(C)O,propan-2-ol,AALcwx,CC[n+]1ccccc1,N#C[N-]C#N,2,,,,1176,False,CC[n+]1ccccc1.N#C[N-]C#N,No changes
kvnyW,298.15,100.0,1083.1,Xing et al. (2017),Liquid,0.8001,1-ethylpyridinium dicyanamide,,,CC[n+]1ccccc1.N#C[N-]C#N,1-ethylpyridinium dicyanamide,AAhaEl,CC(C)O,propan-2-ol,AALcwx,CC[n+]1ccccc1,N#C[N-]C#N,2,,,,1177,False,CC[n+]1ccccc1.N#C[N-]C#N,No changes
kvnyW,298.15,100.0,1100.4,Xing et al. (2017),Liquid,0.8945,1-ethylpyridinium dicyanamide,,,CC[n+]1ccccc1.N#C[N-]C#N,1-ethylpyridinium dicyanamide,AAhaEl,CC(C)O,propan-2-ol,AALcwx,CC[n+]1ccccc1,N#C[N-]C#N,2,,,,1178,False,CC[n+]1ccccc1.N#C[N-]C#N,No changes
kvnyW,298.15,100.0,1118.5,Xing et al. (2017),Liquid,1.0,1-ethylpyridinium dicyanamide,,,CC[n+]1ccccc1.N#C[N-]C#N,1-ethylpyridinium dicyanamide,AAhaEl,CC(C)O,propan-2-ol,AALcwx,CC[n+]1ccccc1,N#C[N-]C#N,2,,,,1179,False,CC[n+]1ccccc1.N#C[N-]C#N,No changes
kvnyW,303.15,100.0,776.81,Xing et al. (2017),Liquid,0.0,1-ethylpyridinium dicyanamide,,,CC[n+]1ccccc1.N#C[N-]C#N,1-ethylpyridinium dicyanamide,AAhaEl,CC(C)O,propan-2-ol,AALcwx,CC[n+]1ccccc1,N#C[N-]C#N,2,,,,1180,False,CC[n+]1ccccc1.N#C[N-]C#N,No changes
kvnyW,303.15,100.0,846.73,Xing et al. (2017),Liquid,0.1003,1-ethylpyridinium dicyanamide,,,CC[n+]1ccccc1.N#C[N-]C#N,1-ethylpyridinium dicyanamide,AAhaEl,CC(C)O,propan-2-ol,AALcwx,CC[n+]1ccccc1,N#C[N-]C#N,2,,,,1181,False,CC[n+]1ccccc1.N#C[N-]C#N,No changes
kvnyW,303.15,100.0,900.73,Xing et al. (2017),Liquid,0.1993,1-ethylpyridinium dicyanamide,,,CC[n+]1ccccc1.N#C[N-]C#N,1-ethylpyridinium dicyanamide,AAhaEl,CC(C)O,propan-2-ol,AALcwx,CC[n+]1ccccc1,N#C[N-]C#N,2,,,,1182,False,CC[n+]1ccccc1.N#C[N-]C#N,No changes
kvnyW,303.15,100.0,945.0,Xing et al. (2017),Liquid,0.2994,1-ethylpyridinium dicyanamide,,,CC[n+]1ccccc1.N#C[N-]C#N,1-ethylpyridinium dicyanamide,AAhaEl,CC(C)O,propan-2-ol,AALcwx,CC[n+]1ccccc1,N#C[N-]C#N,2,,,,1183,False,CC[n+]1ccccc1.N#C[N-]C#N,No changes
kvnyW,303.15,100.0,981.8,Xing et al. (2017),Liquid,0.4002,1-ethylpyridinium dicyanamide,,,CC[n+]1ccccc1.N#C[N-]C#N,1-ethylpyridinium dicyanamide,AAhaEl,CC(C)O,propan-2-ol,AALcwx,CC[n+]1ccccc1,N#C[N-]C#N,2,,,,1184,False,CC[n+]1ccccc1.N#C[N-]C#N,No changes
kvnyW,303.15,100.0,1012.6,Xing et al. (2017),Liquid,0.501,1-ethylpyridinium dicyanamide,,,CC[n+]1ccccc1.N#C[N-]C#N,1-ethylpyridinium dicyanamide,AAhaEl,CC(C)O,propan-2-ol,AALcwx,CC[n+]1ccccc1,N#C[N-]C#N,2,,,,1185,False,CC[n+]1ccccc1.N#C[N-]C#N,No changes
kvnyW,303.15,100.0,1037.6,Xing et al. (2017),Liquid,0.5977,1-ethylpyridinium dicyanamide,,,CC[n+]1ccccc1.N#C[N-]C#N,1-ethylpyridinium dicyanamide,AAhaEl,CC(C)O,propan-2-ol,AALcwx,CC[n+]1ccccc1,N#C[N-]C#N,2,,,,1186,False,CC[n+]1ccccc1.N#C[N-]C#N,No changes
kvnyW,303.15,100.0,1060.8,Xing et al. (2017),Liquid,0.7003,1-ethylpyridinium dicyanamide,,,CC[n+]1ccccc1.N#C[N-]C#N,1-ethylpyridinium dicyanamide,AAhaEl,CC(C)O,propan-2-ol,AALcwx,CC[n+]1ccccc1,N#C[N-]C#N,2,,,,1187,False,CC[n+]1ccccc1.N#C[N-]C#N,No changes
kvnyW,303.15,100.0,1079.9,Xing et al. (2017),Liquid,0.8001,1-ethylpyridinium dicyanamide,,,CC[n+]1ccccc1.N#C[N-]C#N,1-ethylpyridinium dicyanamide,AAhaEl,CC(C)O,propan-2-ol,AALcwx,CC[n+]1ccccc1,N#C[N-]C#N,2,,,,1188,False,CC[n+]1ccccc1.N#C[N-]C#N,No changes
kvnyW,303.15,100.0,1097.1,Xing et al. (2017),Liquid,0.8945,1-ethylpyridinium dicyanamide,,,CC[n+]1ccccc1.N#C[N-]C#N,1-ethylpyridinium dicyanamide,AAhaEl,CC(C)O,propan-2-ol,AALcwx,CC[n+]1ccccc1,N#C[N-]C#N,2,,,,1189,False,CC[n+]1ccccc1.N#C[N-]C#N,No changes
kvnyW,303.15,100.0,1115.3,Xing et al. (2017),Liquid,1.0,1-ethylpyridinium dicyanamide,,,CC[n+]1ccccc1.N#C[N-]C#N,1-ethylpyridinium dicyanamide,AAhaEl,CC(C)O,propan-2-ol,AALcwx,CC[n+]1ccccc1,N#C[N-]C#N,2,,,,1190,False,CC[n+]1ccccc1.N#C[N-]C#N,No changes
kvnyW,308.15,100.0,772.46,Xing et al. (2017),Liquid,0.0,1-ethylpyridinium dicyanamide,,,CC[n+]1ccccc1.N#C[N-]C#N,1-ethylpyridinium dicyanamide,AAhaEl,CC(C)O,propan-2-ol,AALcwx,CC[n+]1ccccc1,N#C[N-]C#N,2,,,,1191,False,CC[n+]1ccccc1.N#C[N-]C#N,No changes
kvnyW,308.15,100.0,842.85,Xing et al. (2017),Liquid,0.1003,1-ethylpyridinium dicyanamide,,,CC[n+]1ccccc1.N#C[N-]C#N,1-ethylpyridinium dicyanamide,AAhaEl,CC(C)O,propan-2-ol,AALcwx,CC[n+]1ccccc1,N#C[N-]C#N,2,,,,1192,False,CC[n+]1ccccc1.N#C[N-]C#N,No changes
kvnyW,308.15,100.0,897.09,Xing et al. (2017),Liquid,0.1993,1-ethylpyridinium dicyanamide,,,CC[n+]1ccccc1.N#C[N-]C#N,1-ethylpyridinium dicyanamide,AAhaEl,CC(C)O,propan-2-ol,AALcwx,CC[n+]1ccccc1,N#C[N-]C#N,2,,,,1193,False,CC[n+]1ccccc1.N#C[N-]C#N,No changes
kvnyW,308.15,100.0,941.5,Xing et al. (2017),Liquid,0.2994,1-ethylpyridinium dicyanamide,,,CC[n+]1ccccc1.N#C[N-]C#N,1-ethylpyridinium dicyanamide,AAhaEl,CC(C)O,propan-2-ol,AALcwx,CC[n+]1ccccc1,N#C[N-]C#N,2,,,,1194,False,CC[n+]1ccccc1.N#C[N-]C#N,No changes
kvnyW,308.15,100.0,978.4,Xing et al. (2017),Liquid,0.4002,1-ethylpyridinium dicyanamide,,,CC[n+]1ccccc1.N#C[N-]C#N,1-ethylpyridinium dicyanamide,AAhaEl,CC(C)O,propan-2-ol,AALcwx,CC[n+]1ccccc1,N#C[N-]C#N,2,,,,1195,False,CC[n+]1ccccc1.N#C[N-]C#N,No changes
kvnyW,308.15,100.0,1009.3,Xing et al. (2017),Liquid,0.501,1-ethylpyridinium dicyanamide,,,CC[n+]1ccccc1.N#C[N-]C#N,1-ethylpyridinium dicyanamide,AAhaEl,CC(C)O,propan-2-ol,AALcwx,CC[n+]1ccccc1,N#C[N-]C#N,2,,,,1196,False,CC[n+]1ccccc1.N#C[N-]C#N,No changes
kvnyW,308.15,100.0,1034.3,Xing et al. (2017),Liquid,0.5977,1-ethylpyridinium dicyanamide,,,CC[n+]1ccccc1.N#C[N-]C#N,1-ethylpyridinium dicyanamide,AAhaEl,CC(C)O,propan-2-ol,AALcwx,CC[n+]1ccccc1,N#C[N-]C#N,2,,,,1197,False,CC[n+]1ccccc1.N#C[N-]C#N,No changes
kvnyW,308.15,100.0,1057.6,Xing et al. (2017),Liquid,0.7003,1-ethylpyridinium dicyanamide,,,CC[n+]1ccccc1.N#C[N-]C#N,1-ethylpyridinium dicyanamide,AAhaEl,CC(C)O,propan-2-ol,AALcwx,CC[n+]1ccccc1,N#C[N-]C#N,2,,,,1198,False,CC[n+]1ccccc1.N#C[N-]C#N,No changes
kvnyW,308.15,100.0,1076.7,Xing et al. (2017),Liquid,0.8001,1-ethylpyridinium dicyanamide,,,CC[n+]1ccccc1.N#C[N-]C#N,1-ethylpyridinium dicyanamide,AAhaEl,CC(C)O,propan-2-ol,AALcwx,CC[n+]1ccccc1,N#C[N-]C#N,2,,,,1199,False,CC[n+]1ccccc1.N#C[N-]C#N,No changes
kvnyW,308.15,100.0,1094.0,Xing et al. (2017),Liquid,0.8945,1-ethylpyridinium dicyanamide,,,CC[n+]1ccccc1.N#C[N-]C#N,1-ethylpyridinium dicyanamide,AAhaEl,CC(C)O,propan-2-ol,AALcwx,CC[n+]1ccccc1,N#C[N-]C#N,2,,,,1200,False,CC[n+]1ccccc1.N#C[N-]C#N,No changes
kvnyW,308.15,100.0,1112.2,Xing et al. (2017),Liquid,1.0,1-ethylpyridinium dicyanamide,,,CC[n+]1ccccc1.N#C[N-]C#N,1-ethylpyridinium dicyanamide,AAhaEl,CC(C)O,propan-2-ol,AALcwx,CC[n+]1ccccc1,N#C[N-]C#N,2,,,,1201,False,CC[n+]1ccccc1.N#C[N-]C#N,No changes