setid,Temperature (K),Pressure (kPa),Density (kg/m3),reference,phases,Mole fraction,Mole fraction of compound name,Weight fraction,Weight fraction of compound name,IL_SMILES,IL_name,IL_ID,Solvent_SMILES,Solvent_name,Solvent_ID,IL_cation_SMILES,IL_anion_SMILES,IL_component_number,Mole fraction of solvent,IL_MW,Solvent_MW,Record_ID,Contains_Metal,Standardized_IL_SMILES,Changes
LCbRO,303.15,101.0,1063.9,Bahadur et al. (2012),Liquid,0.4824,"methyltrioctylammonium 1,1,1-trifluoro-N-[(trifluoromethyl)sulfonyl]methanesulfonamide",,,CCCCCCCC[N+](C)(CCCCCCCC)CCCCCCCC.O=S(=O)([N-]S(=O)(=O)C(F)(F)F)C(F)(F)F,"methyltrioctylammonium 1,1,1-trifluoro-N-[(trifluoromethyl)sulfonyl]methanesulfonamide",ACUobF,CC(C)O,propan-2-ol,AALcwx,CCCCCCCC[N+](C)(CCCCCCCC)CCCCCCCC,O=S(=O)([N-]S(=O)(=O)C(F)(F)F)C(F)(F)F,2,,,,713,False,CCCCCCCC[N+](C)(CCCCCCCC)CCCCCCCC.O=S(=O)([N-]S(=O)(=O)C(F)(F)F)C(F)(F)F,No changes
LCbRO,303.15,101.0,1075.2,Bahadur et al. (2012),Liquid,0.5896,"methyltrioctylammonium 1,1,1-trifluoro-N-[(trifluoromethyl)sulfonyl]methanesulfonamide",,,CCCCCCCC[N+](C)(CCCCCCCC)CCCCCCCC.O=S(=O)([N-]S(=O)(=O)C(F)(F)F)C(F)(F)F,"methyltrioctylammonium 1,1,1-trifluoro-N-[(trifluoromethyl)sulfonyl]methanesulfonamide",ACUobF,CC(C)O,propan-2-ol,AALcwx,CCCCCCCC[N+](C)(CCCCCCCC)CCCCCCCC,O=S(=O)([N-]S(=O)(=O)C(F)(F)F)C(F)(F)F,2,,,,714,False,CCCCCCCC[N+](C)(CCCCCCCC)CCCCCCCC.O=S(=O)([N-]S(=O)(=O)C(F)(F)F)C(F)(F)F,No changes
LCbRO,303.15,101.0,1085.4,Bahadur et al. (2012),Liquid,0.7066,"methyltrioctylammonium 1,1,1-trifluoro-N-[(trifluoromethyl)sulfonyl]methanesulfonamide",,,CCCCCCCC[N+](C)(CCCCCCCC)CCCCCCCC.O=S(=O)([N-]S(=O)(=O)C(F)(F)F)C(F)(F)F,"methyltrioctylammonium 1,1,1-trifluoro-N-[(trifluoromethyl)sulfonyl]methanesulfonamide",ACUobF,CC(C)O,propan-2-ol,AALcwx,CCCCCCCC[N+](C)(CCCCCCCC)CCCCCCCC,O=S(=O)([N-]S(=O)(=O)C(F)(F)F)C(F)(F)F,2,,,,715,False,CCCCCCCC[N+](C)(CCCCCCCC)CCCCCCCC.O=S(=O)([N-]S(=O)(=O)C(F)(F)F)C(F)(F)F,No changes
LCbRO,303.15,101.0,1091.6,Bahadur et al. (2012),Liquid,0.7967,"methyltrioctylammonium 1,1,1-trifluoro-N-[(trifluoromethyl)sulfonyl]methanesulfonamide",,,CCCCCCCC[N+](C)(CCCCCCCC)CCCCCCCC.O=S(=O)([N-]S(=O)(=O)C(F)(F)F)C(F)(F)F,"methyltrioctylammonium 1,1,1-trifluoro-N-[(trifluoromethyl)sulfonyl]methanesulfonamide",ACUobF,CC(C)O,propan-2-ol,AALcwx,CCCCCCCC[N+](C)(CCCCCCCC)CCCCCCCC,O=S(=O)([N-]S(=O)(=O)C(F)(F)F)C(F)(F)F,2,,,,716,False,CCCCCCCC[N+](C)(CCCCCCCC)CCCCCCCC.O=S(=O)([N-]S(=O)(=O)C(F)(F)F)C(F)(F)F,No changes
LCbRO,303.15,101.0,1096.9,Bahadur et al. (2012),Liquid,0.896,"methyltrioctylammonium 1,1,1-trifluoro-N-[(trifluoromethyl)sulfonyl]methanesulfonamide",,,CCCCCCCC[N+](C)(CCCCCCCC)CCCCCCCC.O=S(=O)([N-]S(=O)(=O)C(F)(F)F)C(F)(F)F,"methyltrioctylammonium 1,1,1-trifluoro-N-[(trifluoromethyl)sulfonyl]methanesulfonamide",ACUobF,CC(C)O,propan-2-ol,AALcwx,CCCCCCCC[N+](C)(CCCCCCCC)CCCCCCCC,O=S(=O)([N-]S(=O)(=O)C(F)(F)F)C(F)(F)F,2,,,,717,False,CCCCCCCC[N+](C)(CCCCCCCC)CCCCCCCC.O=S(=O)([N-]S(=O)(=O)C(F)(F)F)C(F)(F)F,No changes
LCbRO,313.15,101.0,865.1,Bahadur et al. (2012),Liquid,0.053,"methyltrioctylammonium 1,1,1-trifluoro-N-[(trifluoromethyl)sulfonyl]methanesulfonamide",,,CCCCCCCC[N+](C)(CCCCCCCC)CCCCCCCC.O=S(=O)([N-]S(=O)(=O)C(F)(F)F)C(F)(F)F,"methyltrioctylammonium 1,1,1-trifluoro-N-[(trifluoromethyl)sulfonyl]methanesulfonamide",ACUobF,CC(C)O,propan-2-ol,AALcwx,CCCCCCCC[N+](C)(CCCCCCCC)CCCCCCCC,O=S(=O)([N-]S(=O)(=O)C(F)(F)F)C(F)(F)F,2,,,,718,False,CCCCCCCC[N+](C)(CCCCCCCC)CCCCCCCC.O=S(=O)([N-]S(=O)(=O)C(F)(F)F)C(F)(F)F,No changes
LCbRO,313.15,101.0,921.3,Bahadur et al. (2012),Liquid,0.1,"methyltrioctylammonium 1,1,1-trifluoro-N-[(trifluoromethyl)sulfonyl]methanesulfonamide",,,CCCCCCCC[N+](C)(CCCCCCCC)CCCCCCCC.O=S(=O)([N-]S(=O)(=O)C(F)(F)F)C(F)(F)F,"methyltrioctylammonium 1,1,1-trifluoro-N-[(trifluoromethyl)sulfonyl]methanesulfonamide",ACUobF,CC(C)O,propan-2-ol,AALcwx,CCCCCCCC[N+](C)(CCCCCCCC)CCCCCCCC,O=S(=O)([N-]S(=O)(=O)C(F)(F)F)C(F)(F)F,2,,,,719,False,CCCCCCCC[N+](C)(CCCCCCCC)CCCCCCCC.O=S(=O)([N-]S(=O)(=O)C(F)(F)F)C(F)(F)F,No changes
LCbRO,313.15,101.0,994.7,Bahadur et al. (2012),Liquid,0.2045,"methyltrioctylammonium 1,1,1-trifluoro-N-[(trifluoromethyl)sulfonyl]methanesulfonamide",,,CCCCCCCC[N+](C)(CCCCCCCC)CCCCCCCC.O=S(=O)([N-]S(=O)(=O)C(F)(F)F)C(F)(F)F,"methyltrioctylammonium 1,1,1-trifluoro-N-[(trifluoromethyl)sulfonyl]methanesulfonamide",ACUobF,CC(C)O,propan-2-ol,AALcwx,CCCCCCCC[N+](C)(CCCCCCCC)CCCCCCCC,O=S(=O)([N-]S(=O)(=O)C(F)(F)F)C(F)(F)F,2,,,,720,False,CCCCCCCC[N+](C)(CCCCCCCC)CCCCCCCC.O=S(=O)([N-]S(=O)(=O)C(F)(F)F)C(F)(F)F,No changes
LCbRO,313.15,101.0,1023.3,Bahadur et al. (2012),Liquid,0.2841,"methyltrioctylammonium 1,1,1-trifluoro-N-[(trifluoromethyl)sulfonyl]methanesulfonamide",,,CCCCCCCC[N+](C)(CCCCCCCC)CCCCCCCC.O=S(=O)([N-]S(=O)(=O)C(F)(F)F)C(F)(F)F,"methyltrioctylammonium 1,1,1-trifluoro-N-[(trifluoromethyl)sulfonyl]methanesulfonamide",ACUobF,CC(C)O,propan-2-ol,AALcwx,CCCCCCCC[N+](C)(CCCCCCCC)CCCCCCCC,O=S(=O)([N-]S(=O)(=O)C(F)(F)F)C(F)(F)F,2,,,,721,False,CCCCCCCC[N+](C)(CCCCCCCC)CCCCCCCC.O=S(=O)([N-]S(=O)(=O)C(F)(F)F)C(F)(F)F,No changes
LCbRO,313.15,101.0,1045.1,Bahadur et al. (2012),Liquid,0.3934,"methyltrioctylammonium 1,1,1-trifluoro-N-[(trifluoromethyl)sulfonyl]methanesulfonamide",,,CCCCCCCC[N+](C)(CCCCCCCC)CCCCCCCC.O=S(=O)([N-]S(=O)(=O)C(F)(F)F)C(F)(F)F,"methyltrioctylammonium 1,1,1-trifluoro-N-[(trifluoromethyl)sulfonyl]methanesulfonamide",ACUobF,CC(C)O,propan-2-ol,AALcwx,CCCCCCCC[N+](C)(CCCCCCCC)CCCCCCCC,O=S(=O)([N-]S(=O)(=O)C(F)(F)F)C(F)(F)F,2,,,,722,False,CCCCCCCC[N+](C)(CCCCCCCC)CCCCCCCC.O=S(=O)([N-]S(=O)(=O)C(F)(F)F)C(F)(F)F,No changes
LCbRO,313.15,101.0,1056.6,Bahadur et al. (2012),Liquid,0.4824,"methyltrioctylammonium 1,1,1-trifluoro-N-[(trifluoromethyl)sulfonyl]methanesulfonamide",,,CCCCCCCC[N+](C)(CCCCCCCC)CCCCCCCC.O=S(=O)([N-]S(=O)(=O)C(F)(F)F)C(F)(F)F,"methyltrioctylammonium 1,1,1-trifluoro-N-[(trifluoromethyl)sulfonyl]methanesulfonamide",ACUobF,CC(C)O,propan-2-ol,AALcwx,CCCCCCCC[N+](C)(CCCCCCCC)CCCCCCCC,O=S(=O)([N-]S(=O)(=O)C(F)(F)F)C(F)(F)F,2,,,,723,False,CCCCCCCC[N+](C)(CCCCCCCC)CCCCCCCC.O=S(=O)([N-]S(=O)(=O)C(F)(F)F)C(F)(F)F,No changes
LCbRO,313.15,101.0,1068.1,Bahadur et al. (2012),Liquid,0.5896,"methyltrioctylammonium 1,1,1-trifluoro-N-[(trifluoromethyl)sulfonyl]methanesulfonamide",,,CCCCCCCC[N+](C)(CCCCCCCC)CCCCCCCC.O=S(=O)([N-]S(=O)(=O)C(F)(F)F)C(F)(F)F,"methyltrioctylammonium 1,1,1-trifluoro-N-[(trifluoromethyl)sulfonyl]methanesulfonamide",ACUobF,CC(C)O,propan-2-ol,AALcwx,CCCCCCCC[N+](C)(CCCCCCCC)CCCCCCCC,O=S(=O)([N-]S(=O)(=O)C(F)(F)F)C(F)(F)F,2,,,,724,False,CCCCCCCC[N+](C)(CCCCCCCC)CCCCCCCC.O=S(=O)([N-]S(=O)(=O)C(F)(F)F)C(F)(F)F,No changes
LCbRO,313.15,101.0,1078.3,Bahadur et al. (2012),Liquid,0.7066,"methyltrioctylammonium 1,1,1-trifluoro-N-[(trifluoromethyl)sulfonyl]methanesulfonamide",,,CCCCCCCC[N+](C)(CCCCCCCC)CCCCCCCC.O=S(=O)([N-]S(=O)(=O)C(F)(F)F)C(F)(F)F,"methyltrioctylammonium 1,1,1-trifluoro-N-[(trifluoromethyl)sulfonyl]methanesulfonamide",ACUobF,CC(C)O,propan-2-ol,AALcwx,CCCCCCCC[N+](C)(CCCCCCCC)CCCCCCCC,O=S(=O)([N-]S(=O)(=O)C(F)(F)F)C(F)(F)F,2,,,,725,False,CCCCCCCC[N+](C)(CCCCCCCC)CCCCCCCC.O=S(=O)([N-]S(=O)(=O)C(F)(F)F)C(F)(F)F,No changes
LCbRO,313.15,101.0,1084.4,Bahadur et al. (2012),Liquid,0.7967,"methyltrioctylammonium 1,1,1-trifluoro-N-[(trifluoromethyl)sulfonyl]methanesulfonamide",,,CCCCCCCC[N+](C)(CCCCCCCC)CCCCCCCC.O=S(=O)([N-]S(=O)(=O)C(F)(F)F)C(F)(F)F,"methyltrioctylammonium 1,1,1-trifluoro-N-[(trifluoromethyl)sulfonyl]methanesulfonamide",ACUobF,CC(C)O,propan-2-ol,AALcwx,CCCCCCCC[N+](C)(CCCCCCCC)CCCCCCCC,O=S(=O)([N-]S(=O)(=O)C(F)(F)F)C(F)(F)F,2,,,,726,False,CCCCCCCC[N+](C)(CCCCCCCC)CCCCCCCC.O=S(=O)([N-]S(=O)(=O)C(F)(F)F)C(F)(F)F,No changes
LCbRO,313.15,101.0,1089.5,Bahadur et al. (2012),Liquid,0.896,"methyltrioctylammonium 1,1,1-trifluoro-N-[(trifluoromethyl)sulfonyl]methanesulfonamide",,,CCCCCCCC[N+](C)(CCCCCCCC)CCCCCCCC.O=S(=O)([N-]S(=O)(=O)C(F)(F)F)C(F)(F)F,"methyltrioctylammonium 1,1,1-trifluoro-N-[(trifluoromethyl)sulfonyl]methanesulfonamide",ACUobF,CC(C)O,propan-2-ol,AALcwx,CCCCCCCC[N+](C)(CCCCCCCC)CCCCCCCC,O=S(=O)([N-]S(=O)(=O)C(F)(F)F)C(F)(F)F,2,,,,727,False,CCCCCCCC[N+](C)(CCCCCCCC)CCCCCCCC.O=S(=O)([N-]S(=O)(=O)C(F)(F)F)C(F)(F)F,No changes
hZHzt,298.15,101.0,781.0,Cai et al. (2020c),Liquid,0.0,bis(2-hydroxyethyl)dimethylammonium methanesulfonate,,,C[N+](C)(CCO)CCO.CS(=O)(=O)[O-],bis(2-hydroxyethyl)dimethylammonium methanesulfonate,AAsEXb,CC(C)O,propan-2-ol,AALcwx,C[N+](C)(CCO)CCO,CS(=O)(=O)[O-],2,,,,728,False,C[N+](C)(CCO)CCO.CS(=O)(=O)[O-],No changes
hZHzt,298.15,101.0,886.6,Cai et al. (2020c),Liquid,0.0998,bis(2-hydroxyethyl)dimethylammonium methanesulfonate,,,C[N+](C)(CCO)CCO.CS(=O)(=O)[O-],bis(2-hydroxyethyl)dimethylammonium methanesulfonate,AAsEXb,CC(C)O,propan-2-ol,AALcwx,C[N+](C)(CCO)CCO,CS(=O)(=O)[O-],2,,,,729,False,C[N+](C)(CCO)CCO.CS(=O)(=O)[O-],No changes
hZHzt,298.15,101.0,971.0,Cai et al. (2020c),Liquid,0.2001,bis(2-hydroxyethyl)dimethylammonium methanesulfonate,,,C[N+](C)(CCO)CCO.CS(=O)(=O)[O-],bis(2-hydroxyethyl)dimethylammonium methanesulfonate,AAsEXb,CC(C)O,propan-2-ol,AALcwx,C[N+](C)(CCO)CCO,CS(=O)(=O)[O-],2,,,,730,False,C[N+](C)(CCO)CCO.CS(=O)(=O)[O-],No changes
hZHzt,298.15,101.0,1040.1,Cai et al. (2020c),Liquid,0.3002,bis(2-hydroxyethyl)dimethylammonium methanesulfonate,,,C[N+](C)(CCO)CCO.CS(=O)(=O)[O-],bis(2-hydroxyethyl)dimethylammonium methanesulfonate,AAsEXb,CC(C)O,propan-2-ol,AALcwx,C[N+](C)(CCO)CCO,CS(=O)(=O)[O-],2,,,,731,False,C[N+](C)(CCO)CCO.CS(=O)(=O)[O-],No changes
hZHzt,298.15,101.0,1097.7,Cai et al. (2020c),Liquid,0.4004,bis(2-hydroxyethyl)dimethylammonium methanesulfonate,,,C[N+](C)(CCO)CCO.CS(=O)(=O)[O-],bis(2-hydroxyethyl)dimethylammonium methanesulfonate,AAsEXb,CC(C)O,propan-2-ol,AALcwx,C[N+](C)(CCO)CCO,CS(=O)(=O)[O-],2,,,,732,False,C[N+](C)(CCO)CCO.CS(=O)(=O)[O-],No changes
hZHzt,298.15,101.0,1144.7,Cai et al. (2020c),Liquid,0.4982,bis(2-hydroxyethyl)dimethylammonium methanesulfonate,,,C[N+](C)(CCO)CCO.CS(=O)(=O)[O-],bis(2-hydroxyethyl)dimethylammonium methanesulfonate,AAsEXb,CC(C)O,propan-2-ol,AALcwx,C[N+](C)(CCO)CCO,CS(=O)(=O)[O-],2,,,,733,False,C[N+](C)(CCO)CCO.CS(=O)(=O)[O-],No changes
hZHzt,298.15,101.0,1186.9,Cai et al. (2020c),Liquid,0.5999,bis(2-hydroxyethyl)dimethylammonium methanesulfonate,,,C[N+](C)(CCO)CCO.CS(=O)(=O)[O-],bis(2-hydroxyethyl)dimethylammonium methanesulfonate,AAsEXb,CC(C)O,propan-2-ol,AALcwx,C[N+](C)(CCO)CCO,CS(=O)(=O)[O-],2,,,,734,False,C[N+](C)(CCO)CCO.CS(=O)(=O)[O-],No changes
hZHzt,298.15,101.0,1221.8,Cai et al. (2020c),Liquid,0.6997,bis(2-hydroxyethyl)dimethylammonium methanesulfonate,,,C[N+](C)(CCO)CCO.CS(=O)(=O)[O-],bis(2-hydroxyethyl)dimethylammonium methanesulfonate,AAsEXb,CC(C)O,propan-2-ol,AALcwx,C[N+](C)(CCO)CCO,CS(=O)(=O)[O-],2,,,,735,False,C[N+](C)(CCO)CCO.CS(=O)(=O)[O-],No changes
hZHzt,298.15,101.0,1251.8,Cai et al. (2020c),Liquid,0.7978,bis(2-hydroxyethyl)dimethylammonium methanesulfonate,,,C[N+](C)(CCO)CCO.CS(=O)(=O)[O-],bis(2-hydroxyethyl)dimethylammonium methanesulfonate,AAsEXb,CC(C)O,propan-2-ol,AALcwx,C[N+](C)(CCO)CCO,CS(=O)(=O)[O-],2,,,,736,False,C[N+](C)(CCO)CCO.CS(=O)(=O)[O-],No changes
hZHzt,298.15,101.0,1278.6,Cai et al. (2020c),Liquid,0.8994,bis(2-hydroxyethyl)dimethylammonium methanesulfonate,,,C[N+](C)(CCO)CCO.CS(=O)(=O)[O-],bis(2-hydroxyethyl)dimethylammonium methanesulfonate,AAsEXb,CC(C)O,propan-2-ol,AALcwx,C[N+](C)(CCO)CCO,CS(=O)(=O)[O-],2,,,,737,False,C[N+](C)(CCO)CCO.CS(=O)(=O)[O-],No changes
hZHzt,298.15,101.0,1298.2,Cai et al. (2020c),Liquid,1.0,bis(2-hydroxyethyl)dimethylammonium methanesulfonate,,,C[N+](C)(CCO)CCO.CS(=O)(=O)[O-],bis(2-hydroxyethyl)dimethylammonium methanesulfonate,AAsEXb,CC(C)O,propan-2-ol,AALcwx,C[N+](C)(CCO)CCO,CS(=O)(=O)[O-],2,,,,738,False,C[N+](C)(CCO)CCO.CS(=O)(=O)[O-],No changes
hZHzt,303.15,101.0,776.8,Cai et al. (2020c),Liquid,0.0,bis(2-hydroxyethyl)dimethylammonium methanesulfonate,,,C[N+](C)(CCO)CCO.CS(=O)(=O)[O-],bis(2-hydroxyethyl)dimethylammonium methanesulfonate,AAsEXb,CC(C)O,propan-2-ol,AALcwx,C[N+](C)(CCO)CCO,CS(=O)(=O)[O-],2,,,,739,False,C[N+](C)(CCO)CCO.CS(=O)(=O)[O-],No changes
hZHzt,303.15,101.0,882.7,Cai et al. (2020c),Liquid,0.0998,bis(2-hydroxyethyl)dimethylammonium methanesulfonate,,,C[N+](C)(CCO)CCO.CS(=O)(=O)[O-],bis(2-hydroxyethyl)dimethylammonium methanesulfonate,AAsEXb,CC(C)O,propan-2-ol,AALcwx,C[N+](C)(CCO)CCO,CS(=O)(=O)[O-],2,,,,740,False,C[N+](C)(CCO)CCO.CS(=O)(=O)[O-],No changes
hZHzt,303.15,101.0,967.4,Cai et al. (2020c),Liquid,0.2001,bis(2-hydroxyethyl)dimethylammonium methanesulfonate,,,C[N+](C)(CCO)CCO.CS(=O)(=O)[O-],bis(2-hydroxyethyl)dimethylammonium methanesulfonate,AAsEXb,CC(C)O,propan-2-ol,AALcwx,C[N+](C)(CCO)CCO,CS(=O)(=O)[O-],2,,,,741,False,C[N+](C)(CCO)CCO.CS(=O)(=O)[O-],No changes
hZHzt,303.15,101.0,1036.6,Cai et al. (2020c),Liquid,0.3002,bis(2-hydroxyethyl)dimethylammonium methanesulfonate,,,C[N+](C)(CCO)CCO.CS(=O)(=O)[O-],bis(2-hydroxyethyl)dimethylammonium methanesulfonate,AAsEXb,CC(C)O,propan-2-ol,AALcwx,C[N+](C)(CCO)CCO,CS(=O)(=O)[O-],2,,,,742,False,C[N+](C)(CCO)CCO.CS(=O)(=O)[O-],No changes
hZHzt,303.15,101.0,1094.3,Cai et al. (2020c),Liquid,0.4004,bis(2-hydroxyethyl)dimethylammonium methanesulfonate,,,C[N+](C)(CCO)CCO.CS(=O)(=O)[O-],bis(2-hydroxyethyl)dimethylammonium methanesulfonate,AAsEXb,CC(C)O,propan-2-ol,AALcwx,C[N+](C)(CCO)CCO,CS(=O)(=O)[O-],2,,,,743,False,C[N+](C)(CCO)CCO.CS(=O)(=O)[O-],No changes
hZHzt,303.15,101.0,1141.9,Cai et al. (2020c),Liquid,0.4982,bis(2-hydroxyethyl)dimethylammonium methanesulfonate,,,C[N+](C)(CCO)CCO.CS(=O)(=O)[O-],bis(2-hydroxyethyl)dimethylammonium methanesulfonate,AAsEXb,CC(C)O,propan-2-ol,AALcwx,C[N+](C)(CCO)CCO,CS(=O)(=O)[O-],2,,,,744,False,C[N+](C)(CCO)CCO.CS(=O)(=O)[O-],No changes
hZHzt,303.15,101.0,1183.6,Cai et al. (2020c),Liquid,0.5999,bis(2-hydroxyethyl)dimethylammonium methanesulfonate,,,C[N+](C)(CCO)CCO.CS(=O)(=O)[O-],bis(2-hydroxyethyl)dimethylammonium methanesulfonate,AAsEXb,CC(C)O,propan-2-ol,AALcwx,C[N+](C)(CCO)CCO,CS(=O)(=O)[O-],2,,,,745,False,C[N+](C)(CCO)CCO.CS(=O)(=O)[O-],No changes
hZHzt,303.15,101.0,1218.6,Cai et al. (2020c),Liquid,0.6997,bis(2-hydroxyethyl)dimethylammonium methanesulfonate,,,C[N+](C)(CCO)CCO.CS(=O)(=O)[O-],bis(2-hydroxyethyl)dimethylammonium methanesulfonate,AAsEXb,CC(C)O,propan-2-ol,AALcwx,C[N+](C)(CCO)CCO,CS(=O)(=O)[O-],2,,,,746,False,C[N+](C)(CCO)CCO.CS(=O)(=O)[O-],No changes
hZHzt,303.15,101.0,1248.6,Cai et al. (2020c),Liquid,0.7978,bis(2-hydroxyethyl)dimethylammonium methanesulfonate,,,C[N+](C)(CCO)CCO.CS(=O)(=O)[O-],bis(2-hydroxyethyl)dimethylammonium methanesulfonate,AAsEXb,CC(C)O,propan-2-ol,AALcwx,C[N+](C)(CCO)CCO,CS(=O)(=O)[O-],2,,,,747,False,C[N+](C)(CCO)CCO.CS(=O)(=O)[O-],No changes
hZHzt,303.15,101.0,1275.4,Cai et al. (2020c),Liquid,0.8994,bis(2-hydroxyethyl)dimethylammonium methanesulfonate,,,C[N+](C)(CCO)CCO.CS(=O)(=O)[O-],bis(2-hydroxyethyl)dimethylammonium methanesulfonate,AAsEXb,CC(C)O,propan-2-ol,AALcwx,C[N+](C)(CCO)CCO,CS(=O)(=O)[O-],2,,,,748,False,C[N+](C)(CCO)CCO.CS(=O)(=O)[O-],No changes
hZHzt,303.15,101.0,1295.0,Cai et al. (2020c),Liquid,1.0,bis(2-hydroxyethyl)dimethylammonium methanesulfonate,,,C[N+](C)(CCO)CCO.CS(=O)(=O)[O-],bis(2-hydroxyethyl)dimethylammonium methanesulfonate,AAsEXb,CC(C)O,propan-2-ol,AALcwx,C[N+](C)(CCO)CCO,CS(=O)(=O)[O-],2,,,,749,False,C[N+](C)(CCO)CCO.CS(=O)(=O)[O-],No changes
hZHzt,308.15,101.0,772.4,Cai et al. (2020c),Liquid,0.0,bis(2-hydroxyethyl)dimethylammonium methanesulfonate,,,C[N+](C)(CCO)CCO.CS(=O)(=O)[O-],bis(2-hydroxyethyl)dimethylammonium methanesulfonate,AAsEXb,CC(C)O,propan-2-ol,AALcwx,C[N+](C)(CCO)CCO,CS(=O)(=O)[O-],2,,,,750,False,C[N+](C)(CCO)CCO.CS(=O)(=O)[O-],No changes
hZHzt,308.15,101.0,878.5,Cai et al. (2020c),Liquid,0.0998,bis(2-hydroxyethyl)dimethylammonium methanesulfonate,,,C[N+](C)(CCO)CCO.CS(=O)(=O)[O-],bis(2-hydroxyethyl)dimethylammonium methanesulfonate,AAsEXb,CC(C)O,propan-2-ol,AALcwx,C[N+](C)(CCO)CCO,CS(=O)(=O)[O-],2,,,,751,False,C[N+](C)(CCO)CCO.CS(=O)(=O)[O-],No changes
hZHzt,308.15,101.0,963.5,Cai et al. (2020c),Liquid,0.2001,bis(2-hydroxyethyl)dimethylammonium methanesulfonate,,,C[N+](C)(CCO)CCO.CS(=O)(=O)[O-],bis(2-hydroxyethyl)dimethylammonium methanesulfonate,AAsEXb,CC(C)O,propan-2-ol,AALcwx,C[N+](C)(CCO)CCO,CS(=O)(=O)[O-],2,,,,752,False,C[N+](C)(CCO)CCO.CS(=O)(=O)[O-],No changes
hZHzt,308.15,101.0,1032.9,Cai et al. (2020c),Liquid,0.3002,bis(2-hydroxyethyl)dimethylammonium methanesulfonate,,,C[N+](C)(CCO)CCO.CS(=O)(=O)[O-],bis(2-hydroxyethyl)dimethylammonium methanesulfonate,AAsEXb,CC(C)O,propan-2-ol,AALcwx,C[N+](C)(CCO)CCO,CS(=O)(=O)[O-],2,,,,753,False,C[N+](C)(CCO)CCO.CS(=O)(=O)[O-],No changes
hZHzt,308.15,101.0,1090.7,Cai et al. (2020c),Liquid,0.4004,bis(2-hydroxyethyl)dimethylammonium methanesulfonate,,,C[N+](C)(CCO)CCO.CS(=O)(=O)[O-],bis(2-hydroxyethyl)dimethylammonium methanesulfonate,AAsEXb,CC(C)O,propan-2-ol,AALcwx,C[N+](C)(CCO)CCO,CS(=O)(=O)[O-],2,,,,754,False,C[N+](C)(CCO)CCO.CS(=O)(=O)[O-],No changes
hZHzt,308.15,101.0,1138.4,Cai et al. (2020c),Liquid,0.4982,bis(2-hydroxyethyl)dimethylammonium methanesulfonate,,,C[N+](C)(CCO)CCO.CS(=O)(=O)[O-],bis(2-hydroxyethyl)dimethylammonium methanesulfonate,AAsEXb,CC(C)O,propan-2-ol,AALcwx,C[N+](C)(CCO)CCO,CS(=O)(=O)[O-],2,,,,755,False,C[N+](C)(CCO)CCO.CS(=O)(=O)[O-],No changes
hZHzt,308.15,101.0,1180.2,Cai et al. (2020c),Liquid,0.5999,bis(2-hydroxyethyl)dimethylammonium methanesulfonate,,,C[N+](C)(CCO)CCO.CS(=O)(=O)[O-],bis(2-hydroxyethyl)dimethylammonium methanesulfonate,AAsEXb,CC(C)O,propan-2-ol,AALcwx,C[N+](C)(CCO)CCO,CS(=O)(=O)[O-],2,,,,756,False,C[N+](C)(CCO)CCO.CS(=O)(=O)[O-],No changes
hZHzt,308.15,101.0,1215.2,Cai et al. (2020c),Liquid,0.6997,bis(2-hydroxyethyl)dimethylammonium methanesulfonate,,,C[N+](C)(CCO)CCO.CS(=O)(=O)[O-],bis(2-hydroxyethyl)dimethylammonium methanesulfonate,AAsEXb,CC(C)O,propan-2-ol,AALcwx,C[N+](C)(CCO)CCO,CS(=O)(=O)[O-],2,,,,757,False,C[N+](C)(CCO)CCO.CS(=O)(=O)[O-],No changes
hZHzt,308.15,101.0,1245.3,Cai et al. (2020c),Liquid,0.7978,bis(2-hydroxyethyl)dimethylammonium methanesulfonate,,,C[N+](C)(CCO)CCO.CS(=O)(=O)[O-],bis(2-hydroxyethyl)dimethylammonium methanesulfonate,AAsEXb,CC(C)O,propan-2-ol,AALcwx,C[N+](C)(CCO)CCO,CS(=O)(=O)[O-],2,,,,758,False,C[N+](C)(CCO)CCO.CS(=O)(=O)[O-],No changes
hZHzt,308.15,101.0,1272.1,Cai et al. (2020c),Liquid,0.8994,bis(2-hydroxyethyl)dimethylammonium methanesulfonate,,,C[N+](C)(CCO)CCO.CS(=O)(=O)[O-],bis(2-hydroxyethyl)dimethylammonium methanesulfonate,AAsEXb,CC(C)O,propan-2-ol,AALcwx,C[N+](C)(CCO)CCO,CS(=O)(=O)[O-],2,,,,759,False,C[N+](C)(CCO)CCO.CS(=O)(=O)[O-],No changes
hZHzt,308.15,101.0,1291.7,Cai et al. (2020c),Liquid,1.0,bis(2-hydroxyethyl)dimethylammonium methanesulfonate,,,C[N+](C)(CCO)CCO.CS(=O)(=O)[O-],bis(2-hydroxyethyl)dimethylammonium methanesulfonate,AAsEXb,CC(C)O,propan-2-ol,AALcwx,C[N+](C)(CCO)CCO,CS(=O)(=O)[O-],2,,,,760,False,C[N+](C)(CCO)CCO.CS(=O)(=O)[O-],No changes
hZHzt,313.15,101.0,768.0,Cai et al. (2020c),Liquid,0.0,bis(2-hydroxyethyl)dimethylammonium methanesulfonate,,,C[N+](C)(CCO)CCO.CS(=O)(=O)[O-],bis(2-hydroxyethyl)dimethylammonium methanesulfonate,AAsEXb,CC(C)O,propan-2-ol,AALcwx,C[N+](C)(CCO)CCO,CS(=O)(=O)[O-],2,,,,761,False,C[N+](C)(CCO)CCO.CS(=O)(=O)[O-],No changes
hZHzt,313.15,101.0,874.6,Cai et al. (2020c),Liquid,0.0998,bis(2-hydroxyethyl)dimethylammonium methanesulfonate,,,C[N+](C)(CCO)CCO.CS(=O)(=O)[O-],bis(2-hydroxyethyl)dimethylammonium methanesulfonate,AAsEXb,CC(C)O,propan-2-ol,AALcwx,C[N+](C)(CCO)CCO,CS(=O)(=O)[O-],2,,,,762,False,C[N+](C)(CCO)CCO.CS(=O)(=O)[O-],No changes
hZHzt,313.15,101.0,959.8,Cai et al. (2020c),Liquid,0.2001,bis(2-hydroxyethyl)dimethylammonium methanesulfonate,,,C[N+](C)(CCO)CCO.CS(=O)(=O)[O-],bis(2-hydroxyethyl)dimethylammonium methanesulfonate,AAsEXb,CC(C)O,propan-2-ol,AALcwx,C[N+](C)(CCO)CCO,CS(=O)(=O)[O-],2,,,,763,False,C[N+](C)(CCO)CCO.CS(=O)(=O)[O-],No changes