setid,Temperature (K),Pressure (kPa),Density (kg/m3),reference,phases,Mole fraction,Mole fraction of compound name,Weight fraction,Weight fraction of compound name,IL_SMILES,IL_name,IL_ID,Solvent_SMILES,Solvent_name,Solvent_ID,IL_cation_SMILES,IL_anion_SMILES,IL_component_number,Mole fraction of solvent,IL_MW,Solvent_MW,Record_ID,Contains_Metal,Standardized_IL_SMILES,Changes
jTciS,328.15,100.0,1033.7,Massel et al. (2015),Liquid,0.1439,ethanol,,,CCCC[N+](C)(C)C.O=S(=O)([N-]S(=O)(=O)C(F)(F)F)C(F)(F)F,butyltrimethylammonium bis(trifluoromethylsulfonyl)imide,ABYLZx,CCO,ethanol,AAIsrh,CCCC[N+](C)(C)C,O=S(=O)([N-]S(=O)(=O)C(F)(F)F)C(F)(F)F,2,0.8561,,,1104,False,CCCC[N+](C)(C)C.O=S(=O)([N-]S(=O)(=O)C(F)(F)F)C(F)(F)F,No changes
jTciS,328.15,100.0,1008.0,Massel et al. (2015),Liquid,0.1237,ethanol,,,CCCC[N+](C)(C)C.O=S(=O)([N-]S(=O)(=O)C(F)(F)F)C(F)(F)F,butyltrimethylammonium bis(trifluoromethylsulfonyl)imide,ABYLZx,CCO,ethanol,AAIsrh,CCCC[N+](C)(C)C,O=S(=O)([N-]S(=O)(=O)C(F)(F)F)C(F)(F)F,2,0.8763,,,1105,False,CCCC[N+](C)(C)C.O=S(=O)([N-]S(=O)(=O)C(F)(F)F)C(F)(F)F,No changes
jTciS,328.15,100.0,967.7,Massel et al. (2015),Liquid,0.0960999999999999,ethanol,,,CCCC[N+](C)(C)C.O=S(=O)([N-]S(=O)(=O)C(F)(F)F)C(F)(F)F,butyltrimethylammonium bis(trifluoromethylsulfonyl)imide,ABYLZx,CCO,ethanol,AAIsrh,CCCC[N+](C)(C)C,O=S(=O)([N-]S(=O)(=O)C(F)(F)F)C(F)(F)F,2,0.9039,,,1106,False,CCCC[N+](C)(C)C.O=S(=O)([N-]S(=O)(=O)C(F)(F)F)C(F)(F)F,No changes
jTciS,328.15,100.0,884.5,Massel et al. (2015),Liquid,0.05,ethanol,,,CCCC[N+](C)(C)C.O=S(=O)([N-]S(=O)(=O)C(F)(F)F)C(F)(F)F,butyltrimethylammonium bis(trifluoromethylsulfonyl)imide,ABYLZx,CCO,ethanol,AAIsrh,CCCC[N+](C)(C)C,O=S(=O)([N-]S(=O)(=O)C(F)(F)F)C(F)(F)F,2,0.95,,,1107,False,CCCC[N+](C)(C)C.O=S(=O)([N-]S(=O)(=O)C(F)(F)F)C(F)(F)F,No changes
jTciS,328.15,100.0,828.8,Massel et al. (2015),Liquid,0.0254999999999999,ethanol,,,CCCC[N+](C)(C)C.O=S(=O)([N-]S(=O)(=O)C(F)(F)F)C(F)(F)F,butyltrimethylammonium bis(trifluoromethylsulfonyl)imide,ABYLZx,CCO,ethanol,AAIsrh,CCCC[N+](C)(C)C,O=S(=O)([N-]S(=O)(=O)C(F)(F)F)C(F)(F)F,2,0.9745,,,1108,False,CCCC[N+](C)(C)C.O=S(=O)([N-]S(=O)(=O)C(F)(F)F)C(F)(F)F,No changes
jTciS,328.15,100.0,758.9,Massel et al. (2015),Liquid,0.0,ethanol,,,CCCC[N+](C)(C)C.O=S(=O)([N-]S(=O)(=O)C(F)(F)F)C(F)(F)F,butyltrimethylammonium bis(trifluoromethylsulfonyl)imide,ABYLZx,CCO,ethanol,AAIsrh,CCCC[N+](C)(C)C,O=S(=O)([N-]S(=O)(=O)C(F)(F)F)C(F)(F)F,2,1.0,,,1109,False,CCCC[N+](C)(C)C.O=S(=O)([N-]S(=O)(=O)C(F)(F)F)C(F)(F)F,No changes
jTciS,333.15,100.0,1362.3,Massel et al. (2015),Liquid,1.0,ethanol,,,CCCC[N+](C)(C)C.O=S(=O)([N-]S(=O)(=O)C(F)(F)F)C(F)(F)F,butyltrimethylammonium bis(trifluoromethylsulfonyl)imide,ABYLZx,CCO,ethanol,AAIsrh,CCCC[N+](C)(C)C,O=S(=O)([N-]S(=O)(=O)C(F)(F)F)C(F)(F)F,2,0.0,,,1110,False,CCCC[N+](C)(C)C.O=S(=O)([N-]S(=O)(=O)C(F)(F)F)C(F)(F)F,No changes
jTciS,333.15,100.0,1344.3,Massel et al. (2015),Liquid,0.8716,ethanol,,,CCCC[N+](C)(C)C.O=S(=O)([N-]S(=O)(=O)C(F)(F)F)C(F)(F)F,butyltrimethylammonium bis(trifluoromethylsulfonyl)imide,ABYLZx,CCO,ethanol,AAIsrh,CCCC[N+](C)(C)C,O=S(=O)([N-]S(=O)(=O)C(F)(F)F)C(F)(F)F,2,0.1284,,,1111,False,CCCC[N+](C)(C)C.O=S(=O)([N-]S(=O)(=O)C(F)(F)F)C(F)(F)F,No changes
jTciS,333.15,100.0,1321.5,Massel et al. (2015),Liquid,0.7415,ethanol,,,CCCC[N+](C)(C)C.O=S(=O)([N-]S(=O)(=O)C(F)(F)F)C(F)(F)F,butyltrimethylammonium bis(trifluoromethylsulfonyl)imide,ABYLZx,CCO,ethanol,AAIsrh,CCCC[N+](C)(C)C,O=S(=O)([N-]S(=O)(=O)C(F)(F)F)C(F)(F)F,2,0.2585,,,1112,False,CCCC[N+](C)(C)C.O=S(=O)([N-]S(=O)(=O)C(F)(F)F)C(F)(F)F,No changes
jTciS,333.15,100.0,1293.7,Massel et al. (2015),Liquid,0.6186,ethanol,,,CCCC[N+](C)(C)C.O=S(=O)([N-]S(=O)(=O)C(F)(F)F)C(F)(F)F,butyltrimethylammonium bis(trifluoromethylsulfonyl)imide,ABYLZx,CCO,ethanol,AAIsrh,CCCC[N+](C)(C)C,O=S(=O)([N-]S(=O)(=O)C(F)(F)F)C(F)(F)F,2,0.3814,,,1113,False,CCCC[N+](C)(C)C.O=S(=O)([N-]S(=O)(=O)C(F)(F)F)C(F)(F)F,No changes
jTciS,333.15,100.0,1257.4,Massel et al. (2015),Liquid,0.4969,ethanol,,,CCCC[N+](C)(C)C.O=S(=O)([N-]S(=O)(=O)C(F)(F)F)C(F)(F)F,butyltrimethylammonium bis(trifluoromethylsulfonyl)imide,ABYLZx,CCO,ethanol,AAIsrh,CCCC[N+](C)(C)C,O=S(=O)([N-]S(=O)(=O)C(F)(F)F)C(F)(F)F,2,0.5031,,,1114,False,CCCC[N+](C)(C)C.O=S(=O)([N-]S(=O)(=O)C(F)(F)F)C(F)(F)F,No changes
jTciS,333.15,100.0,1195.1,Massel et al. (2015),Liquid,0.3512999999999999,ethanol,,,CCCC[N+](C)(C)C.O=S(=O)([N-]S(=O)(=O)C(F)(F)F)C(F)(F)F,butyltrimethylammonium bis(trifluoromethylsulfonyl)imide,ABYLZx,CCO,ethanol,AAIsrh,CCCC[N+](C)(C)C,O=S(=O)([N-]S(=O)(=O)C(F)(F)F)C(F)(F)F,2,0.6487,,,1115,False,CCCC[N+](C)(C)C.O=S(=O)([N-]S(=O)(=O)C(F)(F)F)C(F)(F)F,No changes
jTciS,333.15,100.0,1104.5,Massel et al. (2015),Liquid,0.2177,ethanol,,,CCCC[N+](C)(C)C.O=S(=O)([N-]S(=O)(=O)C(F)(F)F)C(F)(F)F,butyltrimethylammonium bis(trifluoromethylsulfonyl)imide,ABYLZx,CCO,ethanol,AAIsrh,CCCC[N+](C)(C)C,O=S(=O)([N-]S(=O)(=O)C(F)(F)F)C(F)(F)F,2,0.7823,,,1116,False,CCCC[N+](C)(C)C.O=S(=O)([N-]S(=O)(=O)C(F)(F)F)C(F)(F)F,No changes
jTciS,333.15,100.0,1028.9,Massel et al. (2015),Liquid,0.1439,ethanol,,,CCCC[N+](C)(C)C.O=S(=O)([N-]S(=O)(=O)C(F)(F)F)C(F)(F)F,butyltrimethylammonium bis(trifluoromethylsulfonyl)imide,ABYLZx,CCO,ethanol,AAIsrh,CCCC[N+](C)(C)C,O=S(=O)([N-]S(=O)(=O)C(F)(F)F)C(F)(F)F,2,0.8561,,,1117,False,CCCC[N+](C)(C)C.O=S(=O)([N-]S(=O)(=O)C(F)(F)F)C(F)(F)F,No changes
jTciS,333.15,100.0,1003.3,Massel et al. (2015),Liquid,0.1237,ethanol,,,CCCC[N+](C)(C)C.O=S(=O)([N-]S(=O)(=O)C(F)(F)F)C(F)(F)F,butyltrimethylammonium bis(trifluoromethylsulfonyl)imide,ABYLZx,CCO,ethanol,AAIsrh,CCCC[N+](C)(C)C,O=S(=O)([N-]S(=O)(=O)C(F)(F)F)C(F)(F)F,2,0.8763,,,1118,False,CCCC[N+](C)(C)C.O=S(=O)([N-]S(=O)(=O)C(F)(F)F)C(F)(F)F,No changes
jTciS,333.15,100.0,963.0,Massel et al. (2015),Liquid,0.0960999999999999,ethanol,,,CCCC[N+](C)(C)C.O=S(=O)([N-]S(=O)(=O)C(F)(F)F)C(F)(F)F,butyltrimethylammonium bis(trifluoromethylsulfonyl)imide,ABYLZx,CCO,ethanol,AAIsrh,CCCC[N+](C)(C)C,O=S(=O)([N-]S(=O)(=O)C(F)(F)F)C(F)(F)F,2,0.9039,,,1119,False,CCCC[N+](C)(C)C.O=S(=O)([N-]S(=O)(=O)C(F)(F)F)C(F)(F)F,No changes
jTciS,333.15,100.0,879.8,Massel et al. (2015),Liquid,0.05,ethanol,,,CCCC[N+](C)(C)C.O=S(=O)([N-]S(=O)(=O)C(F)(F)F)C(F)(F)F,butyltrimethylammonium bis(trifluoromethylsulfonyl)imide,ABYLZx,CCO,ethanol,AAIsrh,CCCC[N+](C)(C)C,O=S(=O)([N-]S(=O)(=O)C(F)(F)F)C(F)(F)F,2,0.95,,,1120,False,CCCC[N+](C)(C)C.O=S(=O)([N-]S(=O)(=O)C(F)(F)F)C(F)(F)F,No changes
jTciS,333.15,100.0,824.2,Massel et al. (2015),Liquid,0.0254999999999999,ethanol,,,CCCC[N+](C)(C)C.O=S(=O)([N-]S(=O)(=O)C(F)(F)F)C(F)(F)F,butyltrimethylammonium bis(trifluoromethylsulfonyl)imide,ABYLZx,CCO,ethanol,AAIsrh,CCCC[N+](C)(C)C,O=S(=O)([N-]S(=O)(=O)C(F)(F)F)C(F)(F)F,2,0.9745,,,1121,False,CCCC[N+](C)(C)C.O=S(=O)([N-]S(=O)(=O)C(F)(F)F)C(F)(F)F,No changes
jTciS,333.15,100.0,754.4,Massel et al. (2015),Liquid,0.0,ethanol,,,CCCC[N+](C)(C)C.O=S(=O)([N-]S(=O)(=O)C(F)(F)F)C(F)(F)F,butyltrimethylammonium bis(trifluoromethylsulfonyl)imide,ABYLZx,CCO,ethanol,AAIsrh,CCCC[N+](C)(C)C,O=S(=O)([N-]S(=O)(=O)C(F)(F)F)C(F)(F)F,2,1.0,,,1122,False,CCCC[N+](C)(C)C.O=S(=O)([N-]S(=O)(=O)C(F)(F)F)C(F)(F)F,No changes
fZQda,298.15,101.0,1009.4,Yang et al. (2013b),Liquid,0.5009,ethanol,,,CCCC[n+]1ccn(C)c1.[Cl-],1-butyl-3-methylimidazolium chloride,AAherF,CCO,ethanol,AAIsrh,CCCC[n+]1ccn(C)c1,[Cl-],2,0.4991,,,1123,False,CCCC[n+]1ccn(C)c1.[Cl-],No changes
fZQda,298.15,101.0,996.6,Yang et al. (2013b),Liquid,0.4467,ethanol,,,CCCC[n+]1ccn(C)c1.[Cl-],1-butyl-3-methylimidazolium chloride,AAherF,CCO,ethanol,AAIsrh,CCCC[n+]1ccn(C)c1,[Cl-],2,0.5533,,,1124,False,CCCC[n+]1ccn(C)c1.[Cl-],No changes
fZQda,298.15,101.0,983.5,Yang et al. (2013b),Liquid,0.3989,ethanol,,,CCCC[n+]1ccn(C)c1.[Cl-],1-butyl-3-methylimidazolium chloride,AAherF,CCO,ethanol,AAIsrh,CCCC[n+]1ccn(C)c1,[Cl-],2,0.6011,,,1125,False,CCCC[n+]1ccn(C)c1.[Cl-],No changes
fZQda,298.15,101.0,953.3,Yang et al. (2013b),Liquid,0.2996999999999999,ethanol,,,CCCC[n+]1ccn(C)c1.[Cl-],1-butyl-3-methylimidazolium chloride,AAherF,CCO,ethanol,AAIsrh,CCCC[n+]1ccn(C)c1,[Cl-],2,0.7003,,,1126,False,CCCC[n+]1ccn(C)c1.[Cl-],No changes
fZQda,298.15,101.0,914.0,Yang et al. (2013b),Liquid,0.1997999999999999,ethanol,,,CCCC[n+]1ccn(C)c1.[Cl-],1-butyl-3-methylimidazolium chloride,AAherF,CCO,ethanol,AAIsrh,CCCC[n+]1ccn(C)c1,[Cl-],2,0.8002,,,1127,False,CCCC[n+]1ccn(C)c1.[Cl-],No changes
fZQda,298.15,101.0,861.5,Yang et al. (2013b),Liquid,0.0999999999999999,ethanol,,,CCCC[n+]1ccn(C)c1.[Cl-],1-butyl-3-methylimidazolium chloride,AAherF,CCO,ethanol,AAIsrh,CCCC[n+]1ccn(C)c1,[Cl-],2,0.9,,,1128,False,CCCC[n+]1ccn(C)c1.[Cl-],No changes
fZQda,298.15,101.0,827.5,Yang et al. (2013b),Liquid,0.0499,ethanol,,,CCCC[n+]1ccn(C)c1.[Cl-],1-butyl-3-methylimidazolium chloride,AAherF,CCO,ethanol,AAIsrh,CCCC[n+]1ccn(C)c1,[Cl-],2,0.9501,,,1129,False,CCCC[n+]1ccn(C)c1.[Cl-],No changes
fZQda,298.15,101.0,808.2,Yang et al. (2013b),Liquid,0.025,ethanol,,,CCCC[n+]1ccn(C)c1.[Cl-],1-butyl-3-methylimidazolium chloride,AAherF,CCO,ethanol,AAIsrh,CCCC[n+]1ccn(C)c1,[Cl-],2,0.975,,,1130,False,CCCC[n+]1ccn(C)c1.[Cl-],No changes
fZQda,298.15,101.0,786.7,Yang et al. (2013b),Liquid,0.0,ethanol,,,CCCC[n+]1ccn(C)c1.[Cl-],1-butyl-3-methylimidazolium chloride,AAherF,CCO,ethanol,AAIsrh,CCCC[n+]1ccn(C)c1,[Cl-],2,1.0,,,1131,False,CCCC[n+]1ccn(C)c1.[Cl-],No changes
LIQxG,293.15,100.0,789.62,Lu et al. (2015),Liquid,0.0,"2-ethyl-1,1,3,3-tetramethylguanidinium ethyl sulfate",,,CC[NH+]=C(N(C)C)N(C)C.CCOS(=O)(=O)[O-],"2-ethyl-1,1,3,3-tetramethylguanidinium ethyl sulfate",AAzpuP,CCO,ethanol,AAIsrh,CC[NH+]=C(N(C)C)N(C)C,CCOS(=O)(=O)[O-],2,,,,1132,False,CC[NH+]=C(N(C)C)N(C)C.CCOS(=O)(=O)[O-],No changes
LIQxG,293.15,100.0,910.21,Lu et al. (2015),Liquid,0.0998,"2-ethyl-1,1,3,3-tetramethylguanidinium ethyl sulfate",,,CC[NH+]=C(N(C)C)N(C)C.CCOS(=O)(=O)[O-],"2-ethyl-1,1,3,3-tetramethylguanidinium ethyl sulfate",AAzpuP,CCO,ethanol,AAIsrh,CC[NH+]=C(N(C)C)N(C)C,CCOS(=O)(=O)[O-],2,,,,1133,False,CC[NH+]=C(N(C)C)N(C)C.CCOS(=O)(=O)[O-],No changes
LIQxG,293.15,100.0,984.3,Lu et al. (2015),Liquid,0.2003,"2-ethyl-1,1,3,3-tetramethylguanidinium ethyl sulfate",,,CC[NH+]=C(N(C)C)N(C)C.CCOS(=O)(=O)[O-],"2-ethyl-1,1,3,3-tetramethylguanidinium ethyl sulfate",AAzpuP,CCO,ethanol,AAIsrh,CC[NH+]=C(N(C)C)N(C)C,CCOS(=O)(=O)[O-],2,,,,1134,False,CC[NH+]=C(N(C)C)N(C)C.CCOS(=O)(=O)[O-],No changes
LIQxG,293.15,100.0,1033.78,Lu et al. (2015),Liquid,0.3006,"2-ethyl-1,1,3,3-tetramethylguanidinium ethyl sulfate",,,CC[NH+]=C(N(C)C)N(C)C.CCOS(=O)(=O)[O-],"2-ethyl-1,1,3,3-tetramethylguanidinium ethyl sulfate",AAzpuP,CCO,ethanol,AAIsrh,CC[NH+]=C(N(C)C)N(C)C,CCOS(=O)(=O)[O-],2,,,,1135,False,CC[NH+]=C(N(C)C)N(C)C.CCOS(=O)(=O)[O-],No changes
LIQxG,293.15,100.0,1069.61,Lu et al. (2015),Liquid,0.4016,"2-ethyl-1,1,3,3-tetramethylguanidinium ethyl sulfate",,,CC[NH+]=C(N(C)C)N(C)C.CCOS(=O)(=O)[O-],"2-ethyl-1,1,3,3-tetramethylguanidinium ethyl sulfate",AAzpuP,CCO,ethanol,AAIsrh,CC[NH+]=C(N(C)C)N(C)C,CCOS(=O)(=O)[O-],2,,,,1136,False,CC[NH+]=C(N(C)C)N(C)C.CCOS(=O)(=O)[O-],No changes
LIQxG,293.15,100.0,1095.76,Lu et al. (2015),Liquid,0.498,"2-ethyl-1,1,3,3-tetramethylguanidinium ethyl sulfate",,,CC[NH+]=C(N(C)C)N(C)C.CCOS(=O)(=O)[O-],"2-ethyl-1,1,3,3-tetramethylguanidinium ethyl sulfate",AAzpuP,CCO,ethanol,AAIsrh,CC[NH+]=C(N(C)C)N(C)C,CCOS(=O)(=O)[O-],2,,,,1137,False,CC[NH+]=C(N(C)C)N(C)C.CCOS(=O)(=O)[O-],No changes
LIQxG,293.15,100.0,1117.54,Lu et al. (2015),Liquid,0.5996,"2-ethyl-1,1,3,3-tetramethylguanidinium ethyl sulfate",,,CC[NH+]=C(N(C)C)N(C)C.CCOS(=O)(=O)[O-],"2-ethyl-1,1,3,3-tetramethylguanidinium ethyl sulfate",AAzpuP,CCO,ethanol,AAIsrh,CC[NH+]=C(N(C)C)N(C)C,CCOS(=O)(=O)[O-],2,,,,1138,False,CC[NH+]=C(N(C)C)N(C)C.CCOS(=O)(=O)[O-],No changes
LIQxG,293.15,100.0,1134.51,Lu et al. (2015),Liquid,0.6976,"2-ethyl-1,1,3,3-tetramethylguanidinium ethyl sulfate",,,CC[NH+]=C(N(C)C)N(C)C.CCOS(=O)(=O)[O-],"2-ethyl-1,1,3,3-tetramethylguanidinium ethyl sulfate",AAzpuP,CCO,ethanol,AAIsrh,CC[NH+]=C(N(C)C)N(C)C,CCOS(=O)(=O)[O-],2,,,,1139,False,CC[NH+]=C(N(C)C)N(C)C.CCOS(=O)(=O)[O-],No changes
LIQxG,293.15,100.0,1148.6,Lu et al. (2015),Liquid,0.7969,"2-ethyl-1,1,3,3-tetramethylguanidinium ethyl sulfate",,,CC[NH+]=C(N(C)C)N(C)C.CCOS(=O)(=O)[O-],"2-ethyl-1,1,3,3-tetramethylguanidinium ethyl sulfate",AAzpuP,CCO,ethanol,AAIsrh,CC[NH+]=C(N(C)C)N(C)C,CCOS(=O)(=O)[O-],2,,,,1140,False,CC[NH+]=C(N(C)C)N(C)C.CCOS(=O)(=O)[O-],No changes
LIQxG,293.15,100.0,1160.8,Lu et al. (2015),Liquid,0.9008,"2-ethyl-1,1,3,3-tetramethylguanidinium ethyl sulfate",,,CC[NH+]=C(N(C)C)N(C)C.CCOS(=O)(=O)[O-],"2-ethyl-1,1,3,3-tetramethylguanidinium ethyl sulfate",AAzpuP,CCO,ethanol,AAIsrh,CC[NH+]=C(N(C)C)N(C)C,CCOS(=O)(=O)[O-],2,,,,1141,False,CC[NH+]=C(N(C)C)N(C)C.CCOS(=O)(=O)[O-],No changes
LIQxG,293.15,100.0,1170.8,Lu et al. (2015),Liquid,1.0,"2-ethyl-1,1,3,3-tetramethylguanidinium ethyl sulfate",,,CC[NH+]=C(N(C)C)N(C)C.CCOS(=O)(=O)[O-],"2-ethyl-1,1,3,3-tetramethylguanidinium ethyl sulfate",AAzpuP,CCO,ethanol,AAIsrh,CC[NH+]=C(N(C)C)N(C)C,CCOS(=O)(=O)[O-],2,,,,1142,False,CC[NH+]=C(N(C)C)N(C)C.CCOS(=O)(=O)[O-],No changes
LIQxG,298.15,100.0,785.25,Lu et al. (2015),Liquid,0.0,"2-ethyl-1,1,3,3-tetramethylguanidinium ethyl sulfate",,,CC[NH+]=C(N(C)C)N(C)C.CCOS(=O)(=O)[O-],"2-ethyl-1,1,3,3-tetramethylguanidinium ethyl sulfate",AAzpuP,CCO,ethanol,AAIsrh,CC[NH+]=C(N(C)C)N(C)C,CCOS(=O)(=O)[O-],2,,,,1143,False,CC[NH+]=C(N(C)C)N(C)C.CCOS(=O)(=O)[O-],No changes
LIQxG,298.15,100.0,906.2,Lu et al. (2015),Liquid,0.0998,"2-ethyl-1,1,3,3-tetramethylguanidinium ethyl sulfate",,,CC[NH+]=C(N(C)C)N(C)C.CCOS(=O)(=O)[O-],"2-ethyl-1,1,3,3-tetramethylguanidinium ethyl sulfate",AAzpuP,CCO,ethanol,AAIsrh,CC[NH+]=C(N(C)C)N(C)C,CCOS(=O)(=O)[O-],2,,,,1144,False,CC[NH+]=C(N(C)C)N(C)C.CCOS(=O)(=O)[O-],No changes
LIQxG,298.15,100.0,980.34,Lu et al. (2015),Liquid,0.2003,"2-ethyl-1,1,3,3-tetramethylguanidinium ethyl sulfate",,,CC[NH+]=C(N(C)C)N(C)C.CCOS(=O)(=O)[O-],"2-ethyl-1,1,3,3-tetramethylguanidinium ethyl sulfate",AAzpuP,CCO,ethanol,AAIsrh,CC[NH+]=C(N(C)C)N(C)C,CCOS(=O)(=O)[O-],2,,,,1145,False,CC[NH+]=C(N(C)C)N(C)C.CCOS(=O)(=O)[O-],No changes
LIQxG,298.15,100.0,1030.0,Lu et al. (2015),Liquid,0.3006,"2-ethyl-1,1,3,3-tetramethylguanidinium ethyl sulfate",,,CC[NH+]=C(N(C)C)N(C)C.CCOS(=O)(=O)[O-],"2-ethyl-1,1,3,3-tetramethylguanidinium ethyl sulfate",AAzpuP,CCO,ethanol,AAIsrh,CC[NH+]=C(N(C)C)N(C)C,CCOS(=O)(=O)[O-],2,,,,1146,False,CC[NH+]=C(N(C)C)N(C)C.CCOS(=O)(=O)[O-],No changes
LIQxG,298.15,100.0,1065.96,Lu et al. (2015),Liquid,0.4016,"2-ethyl-1,1,3,3-tetramethylguanidinium ethyl sulfate",,,CC[NH+]=C(N(C)C)N(C)C.CCOS(=O)(=O)[O-],"2-ethyl-1,1,3,3-tetramethylguanidinium ethyl sulfate",AAzpuP,CCO,ethanol,AAIsrh,CC[NH+]=C(N(C)C)N(C)C,CCOS(=O)(=O)[O-],2,,,,1147,False,CC[NH+]=C(N(C)C)N(C)C.CCOS(=O)(=O)[O-],No changes
LIQxG,298.15,100.0,1092.12,Lu et al. (2015),Liquid,0.498,"2-ethyl-1,1,3,3-tetramethylguanidinium ethyl sulfate",,,CC[NH+]=C(N(C)C)N(C)C.CCOS(=O)(=O)[O-],"2-ethyl-1,1,3,3-tetramethylguanidinium ethyl sulfate",AAzpuP,CCO,ethanol,AAIsrh,CC[NH+]=C(N(C)C)N(C)C,CCOS(=O)(=O)[O-],2,,,,1148,False,CC[NH+]=C(N(C)C)N(C)C.CCOS(=O)(=O)[O-],No changes
LIQxG,298.15,100.0,1113.91,Lu et al. (2015),Liquid,0.5996,"2-ethyl-1,1,3,3-tetramethylguanidinium ethyl sulfate",,,CC[NH+]=C(N(C)C)N(C)C.CCOS(=O)(=O)[O-],"2-ethyl-1,1,3,3-tetramethylguanidinium ethyl sulfate",AAzpuP,CCO,ethanol,AAIsrh,CC[NH+]=C(N(C)C)N(C)C,CCOS(=O)(=O)[O-],2,,,,1149,False,CC[NH+]=C(N(C)C)N(C)C.CCOS(=O)(=O)[O-],No changes
LIQxG,298.15,100.0,1130.91,Lu et al. (2015),Liquid,0.6976,"2-ethyl-1,1,3,3-tetramethylguanidinium ethyl sulfate",,,CC[NH+]=C(N(C)C)N(C)C.CCOS(=O)(=O)[O-],"2-ethyl-1,1,3,3-tetramethylguanidinium ethyl sulfate",AAzpuP,CCO,ethanol,AAIsrh,CC[NH+]=C(N(C)C)N(C)C,CCOS(=O)(=O)[O-],2,,,,1150,False,CC[NH+]=C(N(C)C)N(C)C.CCOS(=O)(=O)[O-],No changes
LIQxG,298.15,100.0,1145.0,Lu et al. (2015),Liquid,0.7969,"2-ethyl-1,1,3,3-tetramethylguanidinium ethyl sulfate",,,CC[NH+]=C(N(C)C)N(C)C.CCOS(=O)(=O)[O-],"2-ethyl-1,1,3,3-tetramethylguanidinium ethyl sulfate",AAzpuP,CCO,ethanol,AAIsrh,CC[NH+]=C(N(C)C)N(C)C,CCOS(=O)(=O)[O-],2,,,,1151,False,CC[NH+]=C(N(C)C)N(C)C.CCOS(=O)(=O)[O-],No changes
LIQxG,298.15,100.0,1157.3,Lu et al. (2015),Liquid,0.9008,"2-ethyl-1,1,3,3-tetramethylguanidinium ethyl sulfate",,,CC[NH+]=C(N(C)C)N(C)C.CCOS(=O)(=O)[O-],"2-ethyl-1,1,3,3-tetramethylguanidinium ethyl sulfate",AAzpuP,CCO,ethanol,AAIsrh,CC[NH+]=C(N(C)C)N(C)C,CCOS(=O)(=O)[O-],2,,,,1152,False,CC[NH+]=C(N(C)C)N(C)C.CCOS(=O)(=O)[O-],No changes
LIQxG,298.15,100.0,1167.2,Lu et al. (2015),Liquid,1.0,"2-ethyl-1,1,3,3-tetramethylguanidinium ethyl sulfate",,,CC[NH+]=C(N(C)C)N(C)C.CCOS(=O)(=O)[O-],"2-ethyl-1,1,3,3-tetramethylguanidinium ethyl sulfate",AAzpuP,CCO,ethanol,AAIsrh,CC[NH+]=C(N(C)C)N(C)C,CCOS(=O)(=O)[O-],2,,,,1153,False,CC[NH+]=C(N(C)C)N(C)C.CCOS(=O)(=O)[O-],No changes
LIQxG,303.15,100.0,780.89,Lu et al. (2015),Liquid,0.0,"2-ethyl-1,1,3,3-tetramethylguanidinium ethyl sulfate",,,CC[NH+]=C(N(C)C)N(C)C.CCOS(=O)(=O)[O-],"2-ethyl-1,1,3,3-tetramethylguanidinium ethyl sulfate",AAzpuP,CCO,ethanol,AAIsrh,CC[NH+]=C(N(C)C)N(C)C,CCOS(=O)(=O)[O-],2,,,,1154,False,CC[NH+]=C(N(C)C)N(C)C.CCOS(=O)(=O)[O-],No changes
LIQxG,303.15,100.0,902.18,Lu et al. (2015),Liquid,0.0998,"2-ethyl-1,1,3,3-tetramethylguanidinium ethyl sulfate",,,CC[NH+]=C(N(C)C)N(C)C.CCOS(=O)(=O)[O-],"2-ethyl-1,1,3,3-tetramethylguanidinium ethyl sulfate",AAzpuP,CCO,ethanol,AAIsrh,CC[NH+]=C(N(C)C)N(C)C,CCOS(=O)(=O)[O-],2,,,,1155,False,CC[NH+]=C(N(C)C)N(C)C.CCOS(=O)(=O)[O-],No changes
LIQxG,303.15,100.0,976.55,Lu et al. (2015),Liquid,0.2003,"2-ethyl-1,1,3,3-tetramethylguanidinium ethyl sulfate",,,CC[NH+]=C(N(C)C)N(C)C.CCOS(=O)(=O)[O-],"2-ethyl-1,1,3,3-tetramethylguanidinium ethyl sulfate",AAzpuP,CCO,ethanol,AAIsrh,CC[NH+]=C(N(C)C)N(C)C,CCOS(=O)(=O)[O-],2,,,,1156,False,CC[NH+]=C(N(C)C)N(C)C.CCOS(=O)(=O)[O-],No changes
LIQxG,303.15,100.0,1026.22,Lu et al. (2015),Liquid,0.3006,"2-ethyl-1,1,3,3-tetramethylguanidinium ethyl sulfate",,,CC[NH+]=C(N(C)C)N(C)C.CCOS(=O)(=O)[O-],"2-ethyl-1,1,3,3-tetramethylguanidinium ethyl sulfate",AAzpuP,CCO,ethanol,AAIsrh,CC[NH+]=C(N(C)C)N(C)C,CCOS(=O)(=O)[O-],2,,,,1157,False,CC[NH+]=C(N(C)C)N(C)C.CCOS(=O)(=O)[O-],No changes
LIQxG,303.15,100.0,1062.27,Lu et al. (2015),Liquid,0.4016,"2-ethyl-1,1,3,3-tetramethylguanidinium ethyl sulfate",,,CC[NH+]=C(N(C)C)N(C)C.CCOS(=O)(=O)[O-],"2-ethyl-1,1,3,3-tetramethylguanidinium ethyl sulfate",AAzpuP,CCO,ethanol,AAIsrh,CC[NH+]=C(N(C)C)N(C)C,CCOS(=O)(=O)[O-],2,,,,1158,False,CC[NH+]=C(N(C)C)N(C)C.CCOS(=O)(=O)[O-],No changes
LIQxG,303.15,100.0,1088.47,Lu et al. (2015),Liquid,0.498,"2-ethyl-1,1,3,3-tetramethylguanidinium ethyl sulfate",,,CC[NH+]=C(N(C)C)N(C)C.CCOS(=O)(=O)[O-],"2-ethyl-1,1,3,3-tetramethylguanidinium ethyl sulfate",AAzpuP,CCO,ethanol,AAIsrh,CC[NH+]=C(N(C)C)N(C)C,CCOS(=O)(=O)[O-],2,,,,1159,False,CC[NH+]=C(N(C)C)N(C)C.CCOS(=O)(=O)[O-],No changes
LIQxG,303.15,100.0,1110.31,Lu et al. (2015),Liquid,0.5996,"2-ethyl-1,1,3,3-tetramethylguanidinium ethyl sulfate",,,CC[NH+]=C(N(C)C)N(C)C.CCOS(=O)(=O)[O-],"2-ethyl-1,1,3,3-tetramethylguanidinium ethyl sulfate",AAzpuP,CCO,ethanol,AAIsrh,CC[NH+]=C(N(C)C)N(C)C,CCOS(=O)(=O)[O-],2,,,,1160,False,CC[NH+]=C(N(C)C)N(C)C.CCOS(=O)(=O)[O-],No changes
LIQxG,303.15,100.0,1127.33,Lu et al. (2015),Liquid,0.6976,"2-ethyl-1,1,3,3-tetramethylguanidinium ethyl sulfate",,,CC[NH+]=C(N(C)C)N(C)C.CCOS(=O)(=O)[O-],"2-ethyl-1,1,3,3-tetramethylguanidinium ethyl sulfate",AAzpuP,CCO,ethanol,AAIsrh,CC[NH+]=C(N(C)C)N(C)C,CCOS(=O)(=O)[O-],2,,,,1161,False,CC[NH+]=C(N(C)C)N(C)C.CCOS(=O)(=O)[O-],No changes
LIQxG,303.15,100.0,1141.5,Lu et al. (2015),Liquid,0.7969,"2-ethyl-1,1,3,3-tetramethylguanidinium ethyl sulfate",,,CC[NH+]=C(N(C)C)N(C)C.CCOS(=O)(=O)[O-],"2-ethyl-1,1,3,3-tetramethylguanidinium ethyl sulfate",AAzpuP,CCO,ethanol,AAIsrh,CC[NH+]=C(N(C)C)N(C)C,CCOS(=O)(=O)[O-],2,,,,1162,False,CC[NH+]=C(N(C)C)N(C)C.CCOS(=O)(=O)[O-],No changes