setid,Temperature (K),Pressure (kPa),Density (kg/m3),reference,phases,Mole fraction,Mole fraction of compound name,Weight fraction,Weight fraction of compound name,IL_SMILES,IL_name,IL_ID,Solvent_SMILES,Solvent_name,Solvent_ID,IL_cation_SMILES,IL_anion_SMILES,IL_component_number,Mole fraction of solvent,IL_MW,Solvent_MW,Record_ID,Contains_Metal,Standardized_IL_SMILES,Changes
CQBFD,288.15,101.0,964.1,Rilo et al. (2012b),Liquid,0.1901,1-ethyl-3-methylimidazolium octyl sulfate,,,CC[n+]1ccn(C)c1.CCCCCCCCOS(=O)(=O)[O-],1-ethyl-3-methylimidazolium octyl sulfate,ABJgup,CCO,ethanol,AAIsrh,CC[n+]1ccn(C)c1,CCCCCCCCOS(=O)(=O)[O-],2,,,,795,False,CC[n+]1ccn(C)c1.CCCCCCCCOS(=O)(=O)[O-],No changes
CQBFD,288.15,101.0,1006.3,Rilo et al. (2012b),Liquid,0.2985,1-ethyl-3-methylimidazolium octyl sulfate,,,CC[n+]1ccn(C)c1.CCCCCCCCOS(=O)(=O)[O-],1-ethyl-3-methylimidazolium octyl sulfate,ABJgup,CCO,ethanol,AAIsrh,CC[n+]1ccn(C)c1,CCCCCCCCOS(=O)(=O)[O-],2,,,,796,False,CC[n+]1ccn(C)c1.CCCCCCCCOS(=O)(=O)[O-],No changes
CQBFD,288.15,101.0,1031.6,Rilo et al. (2012b),Liquid,0.3955,1-ethyl-3-methylimidazolium octyl sulfate,,,CC[n+]1ccn(C)c1.CCCCCCCCOS(=O)(=O)[O-],1-ethyl-3-methylimidazolium octyl sulfate,ABJgup,CCO,ethanol,AAIsrh,CC[n+]1ccn(C)c1,CCCCCCCCOS(=O)(=O)[O-],2,,,,797,False,CC[n+]1ccn(C)c1.CCCCCCCCOS(=O)(=O)[O-],No changes
CQBFD,288.15,101.0,1050.9,Rilo et al. (2012b),Liquid,0.4964,1-ethyl-3-methylimidazolium octyl sulfate,,,CC[n+]1ccn(C)c1.CCCCCCCCOS(=O)(=O)[O-],1-ethyl-3-methylimidazolium octyl sulfate,ABJgup,CCO,ethanol,AAIsrh,CC[n+]1ccn(C)c1,CCCCCCCCOS(=O)(=O)[O-],2,,,,798,False,CC[n+]1ccn(C)c1.CCCCCCCCOS(=O)(=O)[O-],No changes
CQBFD,288.15,101.0,1065.6,Rilo et al. (2012b),Liquid,0.5975,1-ethyl-3-methylimidazolium octyl sulfate,,,CC[n+]1ccn(C)c1.CCCCCCCCOS(=O)(=O)[O-],1-ethyl-3-methylimidazolium octyl sulfate,ABJgup,CCO,ethanol,AAIsrh,CC[n+]1ccn(C)c1,CCCCCCCCOS(=O)(=O)[O-],2,,,,799,False,CC[n+]1ccn(C)c1.CCCCCCCCOS(=O)(=O)[O-],No changes
CQBFD,288.15,101.0,1075.6,Rilo et al. (2012b),Liquid,0.6844,1-ethyl-3-methylimidazolium octyl sulfate,,,CC[n+]1ccn(C)c1.CCCCCCCCOS(=O)(=O)[O-],1-ethyl-3-methylimidazolium octyl sulfate,ABJgup,CCO,ethanol,AAIsrh,CC[n+]1ccn(C)c1,CCCCCCCCOS(=O)(=O)[O-],2,,,,800,False,CC[n+]1ccn(C)c1.CCCCCCCCOS(=O)(=O)[O-],No changes
CQBFD,288.15,101.0,1085.7,Rilo et al. (2012b),Liquid,0.792,1-ethyl-3-methylimidazolium octyl sulfate,,,CC[n+]1ccn(C)c1.CCCCCCCCOS(=O)(=O)[O-],1-ethyl-3-methylimidazolium octyl sulfate,ABJgup,CCO,ethanol,AAIsrh,CC[n+]1ccn(C)c1,CCCCCCCCOS(=O)(=O)[O-],2,,,,801,False,CC[n+]1ccn(C)c1.CCCCCCCCOS(=O)(=O)[O-],No changes
CQBFD,288.15,101.0,1094.4,Rilo et al. (2012b),Liquid,0.9047,1-ethyl-3-methylimidazolium octyl sulfate,,,CC[n+]1ccn(C)c1.CCCCCCCCOS(=O)(=O)[O-],1-ethyl-3-methylimidazolium octyl sulfate,ABJgup,CCO,ethanol,AAIsrh,CC[n+]1ccn(C)c1,CCCCCCCCOS(=O)(=O)[O-],2,,,,802,False,CC[n+]1ccn(C)c1.CCCCCCCCOS(=O)(=O)[O-],No changes
CQBFD,288.15,101.0,1100.7,Rilo et al. (2012b),Liquid,1.0,1-ethyl-3-methylimidazolium octyl sulfate,,,CC[n+]1ccn(C)c1.CCCCCCCCOS(=O)(=O)[O-],1-ethyl-3-methylimidazolium octyl sulfate,ABJgup,CCO,ethanol,AAIsrh,CC[n+]1ccn(C)c1,CCCCCCCCOS(=O)(=O)[O-],2,,,,803,False,CC[n+]1ccn(C)c1.CCCCCCCCOS(=O)(=O)[O-],No changes
CQBFD,298.15,101.0,898.5,Rilo et al. (2012b),Liquid,0.098,1-ethyl-3-methylimidazolium octyl sulfate,,,CC[n+]1ccn(C)c1.CCCCCCCCOS(=O)(=O)[O-],1-ethyl-3-methylimidazolium octyl sulfate,ABJgup,CCO,ethanol,AAIsrh,CC[n+]1ccn(C)c1,CCCCCCCCOS(=O)(=O)[O-],2,,,,804,False,CC[n+]1ccn(C)c1.CCCCCCCCOS(=O)(=O)[O-],No changes
CQBFD,298.15,101.0,956.5,Rilo et al. (2012b),Liquid,0.1901,1-ethyl-3-methylimidazolium octyl sulfate,,,CC[n+]1ccn(C)c1.CCCCCCCCOS(=O)(=O)[O-],1-ethyl-3-methylimidazolium octyl sulfate,ABJgup,CCO,ethanol,AAIsrh,CC[n+]1ccn(C)c1,CCCCCCCCOS(=O)(=O)[O-],2,,,,805,False,CC[n+]1ccn(C)c1.CCCCCCCCOS(=O)(=O)[O-],No changes
CQBFD,298.15,101.0,998.9,Rilo et al. (2012b),Liquid,0.2985,1-ethyl-3-methylimidazolium octyl sulfate,,,CC[n+]1ccn(C)c1.CCCCCCCCOS(=O)(=O)[O-],1-ethyl-3-methylimidazolium octyl sulfate,ABJgup,CCO,ethanol,AAIsrh,CC[n+]1ccn(C)c1,CCCCCCCCOS(=O)(=O)[O-],2,,,,806,False,CC[n+]1ccn(C)c1.CCCCCCCCOS(=O)(=O)[O-],No changes
CQBFD,298.15,101.0,1024.4,Rilo et al. (2012b),Liquid,0.3955,1-ethyl-3-methylimidazolium octyl sulfate,,,CC[n+]1ccn(C)c1.CCCCCCCCOS(=O)(=O)[O-],1-ethyl-3-methylimidazolium octyl sulfate,ABJgup,CCO,ethanol,AAIsrh,CC[n+]1ccn(C)c1,CCCCCCCCOS(=O)(=O)[O-],2,,,,807,False,CC[n+]1ccn(C)c1.CCCCCCCCOS(=O)(=O)[O-],No changes
CQBFD,298.15,101.0,1043.9,Rilo et al. (2012b),Liquid,0.4964,1-ethyl-3-methylimidazolium octyl sulfate,,,CC[n+]1ccn(C)c1.CCCCCCCCOS(=O)(=O)[O-],1-ethyl-3-methylimidazolium octyl sulfate,ABJgup,CCO,ethanol,AAIsrh,CC[n+]1ccn(C)c1,CCCCCCCCOS(=O)(=O)[O-],2,,,,808,False,CC[n+]1ccn(C)c1.CCCCCCCCOS(=O)(=O)[O-],No changes
CQBFD,298.15,101.0,1058.7,Rilo et al. (2012b),Liquid,0.5975,1-ethyl-3-methylimidazolium octyl sulfate,,,CC[n+]1ccn(C)c1.CCCCCCCCOS(=O)(=O)[O-],1-ethyl-3-methylimidazolium octyl sulfate,ABJgup,CCO,ethanol,AAIsrh,CC[n+]1ccn(C)c1,CCCCCCCCOS(=O)(=O)[O-],2,,,,809,False,CC[n+]1ccn(C)c1.CCCCCCCCOS(=O)(=O)[O-],No changes
CQBFD,298.15,101.0,1068.8,Rilo et al. (2012b),Liquid,0.6844,1-ethyl-3-methylimidazolium octyl sulfate,,,CC[n+]1ccn(C)c1.CCCCCCCCOS(=O)(=O)[O-],1-ethyl-3-methylimidazolium octyl sulfate,ABJgup,CCO,ethanol,AAIsrh,CC[n+]1ccn(C)c1,CCCCCCCCOS(=O)(=O)[O-],2,,,,810,False,CC[n+]1ccn(C)c1.CCCCCCCCOS(=O)(=O)[O-],No changes
CQBFD,298.15,101.0,1078.9,Rilo et al. (2012b),Liquid,0.792,1-ethyl-3-methylimidazolium octyl sulfate,,,CC[n+]1ccn(C)c1.CCCCCCCCOS(=O)(=O)[O-],1-ethyl-3-methylimidazolium octyl sulfate,ABJgup,CCO,ethanol,AAIsrh,CC[n+]1ccn(C)c1,CCCCCCCCOS(=O)(=O)[O-],2,,,,811,False,CC[n+]1ccn(C)c1.CCCCCCCCOS(=O)(=O)[O-],No changes
CQBFD,298.15,101.0,1087.5,Rilo et al. (2012b),Liquid,0.9047,1-ethyl-3-methylimidazolium octyl sulfate,,,CC[n+]1ccn(C)c1.CCCCCCCCOS(=O)(=O)[O-],1-ethyl-3-methylimidazolium octyl sulfate,ABJgup,CCO,ethanol,AAIsrh,CC[n+]1ccn(C)c1,CCCCCCCCOS(=O)(=O)[O-],2,,,,812,False,CC[n+]1ccn(C)c1.CCCCCCCCOS(=O)(=O)[O-],No changes
CQBFD,298.15,101.0,1093.8,Rilo et al. (2012b),Liquid,1.0,1-ethyl-3-methylimidazolium octyl sulfate,,,CC[n+]1ccn(C)c1.CCCCCCCCOS(=O)(=O)[O-],1-ethyl-3-methylimidazolium octyl sulfate,ABJgup,CCO,ethanol,AAIsrh,CC[n+]1ccn(C)c1,CCCCCCCCOS(=O)(=O)[O-],2,,,,813,False,CC[n+]1ccn(C)c1.CCCCCCCCOS(=O)(=O)[O-],No changes
CQBFD,308.15,101.0,890.7,Rilo et al. (2012b),Liquid,0.098,1-ethyl-3-methylimidazolium octyl sulfate,,,CC[n+]1ccn(C)c1.CCCCCCCCOS(=O)(=O)[O-],1-ethyl-3-methylimidazolium octyl sulfate,ABJgup,CCO,ethanol,AAIsrh,CC[n+]1ccn(C)c1,CCCCCCCCOS(=O)(=O)[O-],2,,,,814,False,CC[n+]1ccn(C)c1.CCCCCCCCOS(=O)(=O)[O-],No changes
CQBFD,308.15,101.0,949.0,Rilo et al. (2012b),Liquid,0.1901,1-ethyl-3-methylimidazolium octyl sulfate,,,CC[n+]1ccn(C)c1.CCCCCCCCOS(=O)(=O)[O-],1-ethyl-3-methylimidazolium octyl sulfate,ABJgup,CCO,ethanol,AAIsrh,CC[n+]1ccn(C)c1,CCCCCCCCOS(=O)(=O)[O-],2,,,,815,False,CC[n+]1ccn(C)c1.CCCCCCCCOS(=O)(=O)[O-],No changes
CQBFD,308.15,101.0,991.8,Rilo et al. (2012b),Liquid,0.2985,1-ethyl-3-methylimidazolium octyl sulfate,,,CC[n+]1ccn(C)c1.CCCCCCCCOS(=O)(=O)[O-],1-ethyl-3-methylimidazolium octyl sulfate,ABJgup,CCO,ethanol,AAIsrh,CC[n+]1ccn(C)c1,CCCCCCCCOS(=O)(=O)[O-],2,,,,816,False,CC[n+]1ccn(C)c1.CCCCCCCCOS(=O)(=O)[O-],No changes
CQBFD,308.15,101.0,1017.4,Rilo et al. (2012b),Liquid,0.3955,1-ethyl-3-methylimidazolium octyl sulfate,,,CC[n+]1ccn(C)c1.CCCCCCCCOS(=O)(=O)[O-],1-ethyl-3-methylimidazolium octyl sulfate,ABJgup,CCO,ethanol,AAIsrh,CC[n+]1ccn(C)c1,CCCCCCCCOS(=O)(=O)[O-],2,,,,817,False,CC[n+]1ccn(C)c1.CCCCCCCCOS(=O)(=O)[O-],No changes
CQBFD,308.15,101.0,1037.0,Rilo et al. (2012b),Liquid,0.4964,1-ethyl-3-methylimidazolium octyl sulfate,,,CC[n+]1ccn(C)c1.CCCCCCCCOS(=O)(=O)[O-],1-ethyl-3-methylimidazolium octyl sulfate,ABJgup,CCO,ethanol,AAIsrh,CC[n+]1ccn(C)c1,CCCCCCCCOS(=O)(=O)[O-],2,,,,818,False,CC[n+]1ccn(C)c1.CCCCCCCCOS(=O)(=O)[O-],No changes
CQBFD,308.15,101.0,1051.9,Rilo et al. (2012b),Liquid,0.5975,1-ethyl-3-methylimidazolium octyl sulfate,,,CC[n+]1ccn(C)c1.CCCCCCCCOS(=O)(=O)[O-],1-ethyl-3-methylimidazolium octyl sulfate,ABJgup,CCO,ethanol,AAIsrh,CC[n+]1ccn(C)c1,CCCCCCCCOS(=O)(=O)[O-],2,,,,819,False,CC[n+]1ccn(C)c1.CCCCCCCCOS(=O)(=O)[O-],No changes
CQBFD,308.15,101.0,1062.1,Rilo et al. (2012b),Liquid,0.6844,1-ethyl-3-methylimidazolium octyl sulfate,,,CC[n+]1ccn(C)c1.CCCCCCCCOS(=O)(=O)[O-],1-ethyl-3-methylimidazolium octyl sulfate,ABJgup,CCO,ethanol,AAIsrh,CC[n+]1ccn(C)c1,CCCCCCCCOS(=O)(=O)[O-],2,,,,820,False,CC[n+]1ccn(C)c1.CCCCCCCCOS(=O)(=O)[O-],No changes
CQBFD,308.15,101.0,1072.3,Rilo et al. (2012b),Liquid,0.792,1-ethyl-3-methylimidazolium octyl sulfate,,,CC[n+]1ccn(C)c1.CCCCCCCCOS(=O)(=O)[O-],1-ethyl-3-methylimidazolium octyl sulfate,ABJgup,CCO,ethanol,AAIsrh,CC[n+]1ccn(C)c1,CCCCCCCCOS(=O)(=O)[O-],2,,,,821,False,CC[n+]1ccn(C)c1.CCCCCCCCOS(=O)(=O)[O-],No changes
CQBFD,308.15,101.0,1081.0,Rilo et al. (2012b),Liquid,0.9047,1-ethyl-3-methylimidazolium octyl sulfate,,,CC[n+]1ccn(C)c1.CCCCCCCCOS(=O)(=O)[O-],1-ethyl-3-methylimidazolium octyl sulfate,ABJgup,CCO,ethanol,AAIsrh,CC[n+]1ccn(C)c1,CCCCCCCCOS(=O)(=O)[O-],2,,,,822,False,CC[n+]1ccn(C)c1.CCCCCCCCOS(=O)(=O)[O-],No changes
CQBFD,308.15,101.0,1087.0,Rilo et al. (2012b),Liquid,1.0,1-ethyl-3-methylimidazolium octyl sulfate,,,CC[n+]1ccn(C)c1.CCCCCCCCOS(=O)(=O)[O-],1-ethyl-3-methylimidazolium octyl sulfate,ABJgup,CCO,ethanol,AAIsrh,CC[n+]1ccn(C)c1,CCCCCCCCOS(=O)(=O)[O-],2,,,,823,False,CC[n+]1ccn(C)c1.CCCCCCCCOS(=O)(=O)[O-],No changes
CQBFD,318.15,101.0,882.8,Rilo et al. (2012b),Liquid,0.098,1-ethyl-3-methylimidazolium octyl sulfate,,,CC[n+]1ccn(C)c1.CCCCCCCCOS(=O)(=O)[O-],1-ethyl-3-methylimidazolium octyl sulfate,ABJgup,CCO,ethanol,AAIsrh,CC[n+]1ccn(C)c1,CCCCCCCCOS(=O)(=O)[O-],2,,,,824,False,CC[n+]1ccn(C)c1.CCCCCCCCOS(=O)(=O)[O-],No changes
CQBFD,318.15,101.0,941.4,Rilo et al. (2012b),Liquid,0.1901,1-ethyl-3-methylimidazolium octyl sulfate,,,CC[n+]1ccn(C)c1.CCCCCCCCOS(=O)(=O)[O-],1-ethyl-3-methylimidazolium octyl sulfate,ABJgup,CCO,ethanol,AAIsrh,CC[n+]1ccn(C)c1,CCCCCCCCOS(=O)(=O)[O-],2,,,,825,False,CC[n+]1ccn(C)c1.CCCCCCCCOS(=O)(=O)[O-],No changes
CQBFD,318.15,101.0,984.4,Rilo et al. (2012b),Liquid,0.2985,1-ethyl-3-methylimidazolium octyl sulfate,,,CC[n+]1ccn(C)c1.CCCCCCCCOS(=O)(=O)[O-],1-ethyl-3-methylimidazolium octyl sulfate,ABJgup,CCO,ethanol,AAIsrh,CC[n+]1ccn(C)c1,CCCCCCCCOS(=O)(=O)[O-],2,,,,826,False,CC[n+]1ccn(C)c1.CCCCCCCCOS(=O)(=O)[O-],No changes
CQBFD,318.15,101.0,1010.3,Rilo et al. (2012b),Liquid,0.3955,1-ethyl-3-methylimidazolium octyl sulfate,,,CC[n+]1ccn(C)c1.CCCCCCCCOS(=O)(=O)[O-],1-ethyl-3-methylimidazolium octyl sulfate,ABJgup,CCO,ethanol,AAIsrh,CC[n+]1ccn(C)c1,CCCCCCCCOS(=O)(=O)[O-],2,,,,827,False,CC[n+]1ccn(C)c1.CCCCCCCCOS(=O)(=O)[O-],No changes
CQBFD,318.15,101.0,1030.1,Rilo et al. (2012b),Liquid,0.4964,1-ethyl-3-methylimidazolium octyl sulfate,,,CC[n+]1ccn(C)c1.CCCCCCCCOS(=O)(=O)[O-],1-ethyl-3-methylimidazolium octyl sulfate,ABJgup,CCO,ethanol,AAIsrh,CC[n+]1ccn(C)c1,CCCCCCCCOS(=O)(=O)[O-],2,,,,828,False,CC[n+]1ccn(C)c1.CCCCCCCCOS(=O)(=O)[O-],No changes
CQBFD,318.15,101.0,1045.2,Rilo et al. (2012b),Liquid,0.5975,1-ethyl-3-methylimidazolium octyl sulfate,,,CC[n+]1ccn(C)c1.CCCCCCCCOS(=O)(=O)[O-],1-ethyl-3-methylimidazolium octyl sulfate,ABJgup,CCO,ethanol,AAIsrh,CC[n+]1ccn(C)c1,CCCCCCCCOS(=O)(=O)[O-],2,,,,829,False,CC[n+]1ccn(C)c1.CCCCCCCCOS(=O)(=O)[O-],No changes
CQBFD,318.15,101.0,1055.4,Rilo et al. (2012b),Liquid,0.6844,1-ethyl-3-methylimidazolium octyl sulfate,,,CC[n+]1ccn(C)c1.CCCCCCCCOS(=O)(=O)[O-],1-ethyl-3-methylimidazolium octyl sulfate,ABJgup,CCO,ethanol,AAIsrh,CC[n+]1ccn(C)c1,CCCCCCCCOS(=O)(=O)[O-],2,,,,830,False,CC[n+]1ccn(C)c1.CCCCCCCCOS(=O)(=O)[O-],No changes
CQBFD,318.15,101.0,1065.8,Rilo et al. (2012b),Liquid,0.792,1-ethyl-3-methylimidazolium octyl sulfate,,,CC[n+]1ccn(C)c1.CCCCCCCCOS(=O)(=O)[O-],1-ethyl-3-methylimidazolium octyl sulfate,ABJgup,CCO,ethanol,AAIsrh,CC[n+]1ccn(C)c1,CCCCCCCCOS(=O)(=O)[O-],2,,,,831,False,CC[n+]1ccn(C)c1.CCCCCCCCOS(=O)(=O)[O-],No changes
CQBFD,318.15,101.0,1074.4,Rilo et al. (2012b),Liquid,0.9047,1-ethyl-3-methylimidazolium octyl sulfate,,,CC[n+]1ccn(C)c1.CCCCCCCCOS(=O)(=O)[O-],1-ethyl-3-methylimidazolium octyl sulfate,ABJgup,CCO,ethanol,AAIsrh,CC[n+]1ccn(C)c1,CCCCCCCCOS(=O)(=O)[O-],2,,,,832,False,CC[n+]1ccn(C)c1.CCCCCCCCOS(=O)(=O)[O-],No changes
CQBFD,318.15,101.0,1080.5,Rilo et al. (2012b),Liquid,1.0,1-ethyl-3-methylimidazolium octyl sulfate,,,CC[n+]1ccn(C)c1.CCCCCCCCOS(=O)(=O)[O-],1-ethyl-3-methylimidazolium octyl sulfate,ABJgup,CCO,ethanol,AAIsrh,CC[n+]1ccn(C)c1,CCCCCCCCOS(=O)(=O)[O-],2,,,,833,False,CC[n+]1ccn(C)c1.CCCCCCCCOS(=O)(=O)[O-],No changes
TvZFe,298.15,101.0,1008.4,Shao et al. (2012),Liquid,1.0,ethanol,,,CC[NH+]1CCNCC1.CCC(=O)[O-],N-ethylpiperazinium propionate,AAkKSn,CCO,ethanol,AAIsrh,CC[NH+]1CCNCC1,CCC(=O)[O-],2,0.0,,,834,False,CC[NH+]1CCNCC1.CCC(=O)[O-],No changes
TvZFe,298.15,101.0,1002.8,Shao et al. (2012),Liquid,0.9029,ethanol,,,CC[NH+]1CCNCC1.CCC(=O)[O-],N-ethylpiperazinium propionate,AAkKSn,CCO,ethanol,AAIsrh,CC[NH+]1CCNCC1,CCC(=O)[O-],2,0.0971,,,835,False,CC[NH+]1CCNCC1.CCC(=O)[O-],No changes
TvZFe,298.15,101.0,995.311,Shao et al. (2012),Liquid,0.7983,ethanol,,,CC[NH+]1CCNCC1.CCC(=O)[O-],N-ethylpiperazinium propionate,AAkKSn,CCO,ethanol,AAIsrh,CC[NH+]1CCNCC1,CCC(=O)[O-],2,0.2017,,,836,False,CC[NH+]1CCNCC1.CCC(=O)[O-],No changes
TvZFe,298.15,101.0,986.576,Shao et al. (2012),Liquid,0.6967,ethanol,,,CC[NH+]1CCNCC1.CCC(=O)[O-],N-ethylpiperazinium propionate,AAkKSn,CCO,ethanol,AAIsrh,CC[NH+]1CCNCC1,CCC(=O)[O-],2,0.3033,,,837,False,CC[NH+]1CCNCC1.CCC(=O)[O-],No changes
TvZFe,298.15,101.0,976.628,Shao et al. (2012),Liquid,0.6017,ethanol,,,CC[NH+]1CCNCC1.CCC(=O)[O-],N-ethylpiperazinium propionate,AAkKSn,CCO,ethanol,AAIsrh,CC[NH+]1CCNCC1,CCC(=O)[O-],2,0.3983,,,838,False,CC[NH+]1CCNCC1.CCC(=O)[O-],No changes
TvZFe,298.15,101.0,963.41,Shao et al. (2012),Liquid,0.4999,ethanol,,,CC[NH+]1CCNCC1.CCC(=O)[O-],N-ethylpiperazinium propionate,AAkKSn,CCO,ethanol,AAIsrh,CC[NH+]1CCNCC1,CCC(=O)[O-],2,0.5001,,,839,False,CC[NH+]1CCNCC1.CCC(=O)[O-],No changes
TvZFe,298.15,101.0,946.741,Shao et al. (2012),Liquid,0.3994,ethanol,,,CC[NH+]1CCNCC1.CCC(=O)[O-],N-ethylpiperazinium propionate,AAkKSn,CCO,ethanol,AAIsrh,CC[NH+]1CCNCC1,CCC(=O)[O-],2,0.6006,,,840,False,CC[NH+]1CCNCC1.CCC(=O)[O-],No changes
TvZFe,298.15,101.0,925.277,Shao et al. (2012),Liquid,0.3006,ethanol,,,CC[NH+]1CCNCC1.CCC(=O)[O-],N-ethylpiperazinium propionate,AAkKSn,CCO,ethanol,AAIsrh,CC[NH+]1CCNCC1,CCC(=O)[O-],2,0.6994,,,841,False,CC[NH+]1CCNCC1.CCC(=O)[O-],No changes
TvZFe,298.15,101.0,895.282,Shao et al. (2012),Liquid,0.1998999999999999,ethanol,,,CC[NH+]1CCNCC1.CCC(=O)[O-],N-ethylpiperazinium propionate,AAkKSn,CCO,ethanol,AAIsrh,CC[NH+]1CCNCC1,CCC(=O)[O-],2,0.8001,,,842,False,CC[NH+]1CCNCC1.CCC(=O)[O-],No changes
TvZFe,298.15,101.0,852.5,Shao et al. (2012),Liquid,0.1001999999999999,ethanol,,,CC[NH+]1CCNCC1.CCC(=O)[O-],N-ethylpiperazinium propionate,AAkKSn,CCO,ethanol,AAIsrh,CC[NH+]1CCNCC1,CCC(=O)[O-],2,0.8998,,,843,False,CC[NH+]1CCNCC1.CCC(=O)[O-],No changes
TvZFe,298.15,101.0,785.5,Shao et al. (2012),Liquid,0.0,ethanol,,,CC[NH+]1CCNCC1.CCC(=O)[O-],N-ethylpiperazinium propionate,AAkKSn,CCO,ethanol,AAIsrh,CC[NH+]1CCNCC1,CCC(=O)[O-],2,1.0,,,844,False,CC[NH+]1CCNCC1.CCC(=O)[O-],No changes
TvZFe,303.15,101.0,1004.4,Shao et al. (2012),Liquid,1.0,ethanol,,,CC[NH+]1CCNCC1.CCC(=O)[O-],N-ethylpiperazinium propionate,AAkKSn,CCO,ethanol,AAIsrh,CC[NH+]1CCNCC1,CCC(=O)[O-],2,0.0,,,845,False,CC[NH+]1CCNCC1.CCC(=O)[O-],No changes
TvZFe,303.15,101.0,998.8,Shao et al. (2012),Liquid,0.9029,ethanol,,,CC[NH+]1CCNCC1.CCC(=O)[O-],N-ethylpiperazinium propionate,AAkKSn,CCO,ethanol,AAIsrh,CC[NH+]1CCNCC1,CCC(=O)[O-],2,0.0971,,,846,False,CC[NH+]1CCNCC1.CCC(=O)[O-],No changes
TvZFe,303.15,101.0,991.322,Shao et al. (2012),Liquid,0.7983,ethanol,,,CC[NH+]1CCNCC1.CCC(=O)[O-],N-ethylpiperazinium propionate,AAkKSn,CCO,ethanol,AAIsrh,CC[NH+]1CCNCC1,CCC(=O)[O-],2,0.2017,,,847,False,CC[NH+]1CCNCC1.CCC(=O)[O-],No changes
TvZFe,303.15,101.0,982.598,Shao et al. (2012),Liquid,0.6967,ethanol,,,CC[NH+]1CCNCC1.CCC(=O)[O-],N-ethylpiperazinium propionate,AAkKSn,CCO,ethanol,AAIsrh,CC[NH+]1CCNCC1,CCC(=O)[O-],2,0.3033,,,848,False,CC[NH+]1CCNCC1.CCC(=O)[O-],No changes
TvZFe,303.15,101.0,972.658,Shao et al. (2012),Liquid,0.6017,ethanol,,,CC[NH+]1CCNCC1.CCC(=O)[O-],N-ethylpiperazinium propionate,AAkKSn,CCO,ethanol,AAIsrh,CC[NH+]1CCNCC1,CCC(=O)[O-],2,0.3983,,,849,False,CC[NH+]1CCNCC1.CCC(=O)[O-],No changes
TvZFe,303.15,101.0,959.429,Shao et al. (2012),Liquid,0.4999,ethanol,,,CC[NH+]1CCNCC1.CCC(=O)[O-],N-ethylpiperazinium propionate,AAkKSn,CCO,ethanol,AAIsrh,CC[NH+]1CCNCC1,CCC(=O)[O-],2,0.5001,,,850,False,CC[NH+]1CCNCC1.CCC(=O)[O-],No changes
TvZFe,303.15,101.0,942.745,Shao et al. (2012),Liquid,0.3994,ethanol,,,CC[NH+]1CCNCC1.CCC(=O)[O-],N-ethylpiperazinium propionate,AAkKSn,CCO,ethanol,AAIsrh,CC[NH+]1CCNCC1,CCC(=O)[O-],2,0.6006,,,851,False,CC[NH+]1CCNCC1.CCC(=O)[O-],No changes
TvZFe,303.15,101.0,921.231,Shao et al. (2012),Liquid,0.3006,ethanol,,,CC[NH+]1CCNCC1.CCC(=O)[O-],N-ethylpiperazinium propionate,AAkKSn,CCO,ethanol,AAIsrh,CC[NH+]1CCNCC1,CCC(=O)[O-],2,0.6994,,,852,False,CC[NH+]1CCNCC1.CCC(=O)[O-],No changes
TvZFe,303.15,101.0,891.163,Shao et al. (2012),Liquid,0.1998999999999999,ethanol,,,CC[NH+]1CCNCC1.CCC(=O)[O-],N-ethylpiperazinium propionate,AAkKSn,CCO,ethanol,AAIsrh,CC[NH+]1CCNCC1,CCC(=O)[O-],2,0.8001,,,853,False,CC[NH+]1CCNCC1.CCC(=O)[O-],No changes
TvZFe,303.15,101.0,848.2,Shao et al. (2012),Liquid,0.1001999999999999,ethanol,,,CC[NH+]1CCNCC1.CCC(=O)[O-],N-ethylpiperazinium propionate,AAkKSn,CCO,ethanol,AAIsrh,CC[NH+]1CCNCC1,CCC(=O)[O-],2,0.8998,,,854,False,CC[NH+]1CCNCC1.CCC(=O)[O-],No changes
TvZFe,303.15,101.0,781.2,Shao et al. (2012),Liquid,0.0,ethanol,,,CC[NH+]1CCNCC1.CCC(=O)[O-],N-ethylpiperazinium propionate,AAkKSn,CCO,ethanol,AAIsrh,CC[NH+]1CCNCC1,CCC(=O)[O-],2,1.0,,,855,False,CC[NH+]1CCNCC1.CCC(=O)[O-],No changes
TvZFe,308.15,101.0,1000.3,Shao et al. (2012),Liquid,1.0,ethanol,,,CC[NH+]1CCNCC1.CCC(=O)[O-],N-ethylpiperazinium propionate,AAkKSn,CCO,ethanol,AAIsrh,CC[NH+]1CCNCC1,CCC(=O)[O-],2,0.0,,,856,False,CC[NH+]1CCNCC1.CCC(=O)[O-],No changes
TvZFe,308.15,101.0,994.8,Shao et al. (2012),Liquid,0.9029,ethanol,,,CC[NH+]1CCNCC1.CCC(=O)[O-],N-ethylpiperazinium propionate,AAkKSn,CCO,ethanol,AAIsrh,CC[NH+]1CCNCC1,CCC(=O)[O-],2,0.0971,,,857,False,CC[NH+]1CCNCC1.CCC(=O)[O-],No changes
TvZFe,308.15,101.0,987.293,Shao et al. (2012),Liquid,0.7983,ethanol,,,CC[NH+]1CCNCC1.CCC(=O)[O-],N-ethylpiperazinium propionate,AAkKSn,CCO,ethanol,AAIsrh,CC[NH+]1CCNCC1,CCC(=O)[O-],2,0.2017,,,858,False,CC[NH+]1CCNCC1.CCC(=O)[O-],No changes
TvZFe,308.15,101.0,978.579,Shao et al. (2012),Liquid,0.6967,ethanol,,,CC[NH+]1CCNCC1.CCC(=O)[O-],N-ethylpiperazinium propionate,AAkKSn,CCO,ethanol,AAIsrh,CC[NH+]1CCNCC1,CCC(=O)[O-],2,0.3033,,,859,False,CC[NH+]1CCNCC1.CCC(=O)[O-],No changes
TvZFe,308.15,101.0,968.645,Shao et al. (2012),Liquid,0.6017,ethanol,,,CC[NH+]1CCNCC1.CCC(=O)[O-],N-ethylpiperazinium propionate,AAkKSn,CCO,ethanol,AAIsrh,CC[NH+]1CCNCC1,CCC(=O)[O-],2,0.3983,,,860,False,CC[NH+]1CCNCC1.CCC(=O)[O-],No changes
TvZFe,308.15,101.0,955.408,Shao et al. (2012),Liquid,0.4999,ethanol,,,CC[NH+]1CCNCC1.CCC(=O)[O-],N-ethylpiperazinium propionate,AAkKSn,CCO,ethanol,AAIsrh,CC[NH+]1CCNCC1,CCC(=O)[O-],2,0.5001,,,861,False,CC[NH+]1CCNCC1.CCC(=O)[O-],No changes
TvZFe,308.15,101.0,938.702,Shao et al. (2012),Liquid,0.3994,ethanol,,,CC[NH+]1CCNCC1.CCC(=O)[O-],N-ethylpiperazinium propionate,AAkKSn,CCO,ethanol,AAIsrh,CC[NH+]1CCNCC1,CCC(=O)[O-],2,0.6006,,,862,False,CC[NH+]1CCNCC1.CCC(=O)[O-],No changes
TvZFe,308.15,101.0,917.149,Shao et al. (2012),Liquid,0.3006,ethanol,,,CC[NH+]1CCNCC1.CCC(=O)[O-],N-ethylpiperazinium propionate,AAkKSn,CCO,ethanol,AAIsrh,CC[NH+]1CCNCC1,CCC(=O)[O-],2,0.6994,,,863,False,CC[NH+]1CCNCC1.CCC(=O)[O-],No changes