setid,Temperature (K),Pressure (kPa),Density (kg/m3),reference,phases,Mole fraction,Mole fraction of compound name,Weight fraction,Weight fraction of compound name,IL_SMILES,IL_name,IL_ID,Solvent_SMILES,Solvent_name,Solvent_ID,IL_cation_SMILES,IL_anion_SMILES,IL_component_number,Mole fraction of solvent,IL_MW,Solvent_MW,Record_ID,Contains_Metal,Standardized_IL_SMILES,Changes
KVRwB,298.15,100.0,1067.7,Wojtczuk et al. (2020),Liquid,0.655,ethanol,,,CC[n+]1ccn(C)c1.N#C[S-],1-ethyl-3-methylimidazolium thiocyanate,AAgcST,CCO,ethanol,AAIsrh,CC[n+]1ccn(C)c1,N#C[S-],2,0.345,,,1762,False,CC[n+]1ccn(C)c1.N#C[S-],No changes
KVRwB,298.15,100.0,1060.5,Wojtczuk et al. (2020),Liquid,0.6164000000000001,ethanol,,,CC[n+]1ccn(C)c1.N#C[S-],1-ethyl-3-methylimidazolium thiocyanate,AAgcST,CCO,ethanol,AAIsrh,CC[n+]1ccn(C)c1,N#C[S-],2,0.3836,,,1763,False,CC[n+]1ccn(C)c1.N#C[S-],No changes
KVRwB,298.15,100.0,1035.2,Wojtczuk et al. (2020),Liquid,0.4991,ethanol,,,CC[n+]1ccn(C)c1.N#C[S-],1-ethyl-3-methylimidazolium thiocyanate,AAgcST,CCO,ethanol,AAIsrh,CC[n+]1ccn(C)c1,N#C[S-],2,0.5009,,,1764,False,CC[n+]1ccn(C)c1.N#C[S-],No changes
KVRwB,298.15,100.0,1031.8,Wojtczuk et al. (2020),Liquid,0.4858,ethanol,,,CC[n+]1ccn(C)c1.N#C[S-],1-ethyl-3-methylimidazolium thiocyanate,AAgcST,CCO,ethanol,AAIsrh,CC[n+]1ccn(C)c1,N#C[S-],2,0.5142,,,1765,False,CC[n+]1ccn(C)c1.N#C[S-],No changes
KVRwB,298.15,100.0,1003.1,Wojtczuk et al. (2020),Liquid,0.3819,ethanol,,,CC[n+]1ccn(C)c1.N#C[S-],1-ethyl-3-methylimidazolium thiocyanate,AAgcST,CCO,ethanol,AAIsrh,CC[n+]1ccn(C)c1,N#C[S-],2,0.6181,,,1766,False,CC[n+]1ccn(C)c1.N#C[S-],No changes
KVRwB,298.15,100.0,975.7,Wojtczuk et al. (2020),Liquid,0.3052,ethanol,,,CC[n+]1ccn(C)c1.N#C[S-],1-ethyl-3-methylimidazolium thiocyanate,AAgcST,CCO,ethanol,AAIsrh,CC[n+]1ccn(C)c1,N#C[S-],2,0.6948,,,1767,False,CC[n+]1ccn(C)c1.N#C[S-],No changes
KVRwB,298.15,100.0,928.2,Wojtczuk et al. (2020),Liquid,0.2003,ethanol,,,CC[n+]1ccn(C)c1.N#C[S-],1-ethyl-3-methylimidazolium thiocyanate,AAgcST,CCO,ethanol,AAIsrh,CC[n+]1ccn(C)c1,N#C[S-],2,0.7997,,,1768,False,CC[n+]1ccn(C)c1.N#C[S-],No changes
KVRwB,298.15,100.0,873.3,Wojtczuk et al. (2020),Liquid,0.1056,ethanol,,,CC[n+]1ccn(C)c1.N#C[S-],1-ethyl-3-methylimidazolium thiocyanate,AAgcST,CCO,ethanol,AAIsrh,CC[n+]1ccn(C)c1,N#C[S-],2,0.8944,,,1769,False,CC[n+]1ccn(C)c1.N#C[S-],No changes
KVRwB,298.15,100.0,784.6,Wojtczuk et al. (2020),Liquid,0.0,ethanol,,,CC[n+]1ccn(C)c1.N#C[S-],1-ethyl-3-methylimidazolium thiocyanate,AAgcST,CCO,ethanol,AAIsrh,CC[n+]1ccn(C)c1,N#C[S-],2,1.0,,,1770,False,CC[n+]1ccn(C)c1.N#C[S-],No changes
BTzJd,298.15,101.0,917.0,Khan et al. (2015),Liquid,0.19,1-butyl-3-methylimidazolium dicyanamide,,,CCCC[n+]1ccn(C)c1.N#C[N-]C#N,1-butyl-3-methylimidazolium dicyanamide,AAnYjG,CCO,ethanol,AAIsrh,CCCC[n+]1ccn(C)c1,N#C[N-]C#N,2,,,,1771,False,CCCC[n+]1ccn(C)c1.N#C[N-]C#N,No changes
BTzJd,298.15,101.0,983.0,Khan et al. (2015),Liquid,0.4,1-butyl-3-methylimidazolium dicyanamide,,,CCCC[n+]1ccn(C)c1.N#C[N-]C#N,1-butyl-3-methylimidazolium dicyanamide,AAnYjG,CCO,ethanol,AAIsrh,CCCC[n+]1ccn(C)c1,N#C[N-]C#N,2,,,,1772,False,CCCC[n+]1ccn(C)c1.N#C[N-]C#N,No changes
BTzJd,298.15,101.0,1023.0,Khan et al. (2015),Liquid,0.63,1-butyl-3-methylimidazolium dicyanamide,,,CCCC[n+]1ccn(C)c1.N#C[N-]C#N,1-butyl-3-methylimidazolium dicyanamide,AAnYjG,CCO,ethanol,AAIsrh,CCCC[n+]1ccn(C)c1,N#C[N-]C#N,2,,,,1773,False,CCCC[n+]1ccn(C)c1.N#C[N-]C#N,No changes
BTzJd,298.15,101.0,1045.0,Khan et al. (2015),Liquid,0.83,1-butyl-3-methylimidazolium dicyanamide,,,CCCC[n+]1ccn(C)c1.N#C[N-]C#N,1-butyl-3-methylimidazolium dicyanamide,AAnYjG,CCO,ethanol,AAIsrh,CCCC[n+]1ccn(C)c1,N#C[N-]C#N,2,,,,1774,False,CCCC[n+]1ccn(C)c1.N#C[N-]C#N,No changes
CBgVn,298.15,101.0,1474.44,Gomez et al. (2012),Liquid,1.0,ethanol,,,CCCn1cc[n+](C)c1.O=S(=O)([N-]S(=O)(=O)C(F)(F)F)C(F)(F)F,1-methyl-3-propylimidazolium bis[(trifluoromethyl)sulfonyl]imide,ABZxGx,CCO,ethanol,AAIsrh,CCCn1cc[n+](C)c1,O=S(=O)([N-]S(=O)(=O)C(F)(F)F)C(F)(F)F,2,0.0,,,1775,False,CCCn1cc[n+](C)c1.O=S(=O)([N-]S(=O)(=O)C(F)(F)F)C(F)(F)F,No changes
CBgVn,298.15,101.0,1465.87,Gomez et al. (2012),Liquid,0.947,ethanol,,,CCCn1cc[n+](C)c1.O=S(=O)([N-]S(=O)(=O)C(F)(F)F)C(F)(F)F,1-methyl-3-propylimidazolium bis[(trifluoromethyl)sulfonyl]imide,ABZxGx,CCO,ethanol,AAIsrh,CCCn1cc[n+](C)c1,O=S(=O)([N-]S(=O)(=O)C(F)(F)F)C(F)(F)F,2,0.053,,,1776,False,CCCn1cc[n+](C)c1.O=S(=O)([N-]S(=O)(=O)C(F)(F)F)C(F)(F)F,No changes
CBgVn,298.15,101.0,1458.19,Gomez et al. (2012),Liquid,0.901,ethanol,,,CCCn1cc[n+](C)c1.O=S(=O)([N-]S(=O)(=O)C(F)(F)F)C(F)(F)F,1-methyl-3-propylimidazolium bis[(trifluoromethyl)sulfonyl]imide,ABZxGx,CCO,ethanol,AAIsrh,CCCn1cc[n+](C)c1,O=S(=O)([N-]S(=O)(=O)C(F)(F)F)C(F)(F)F,2,0.099,,,1777,False,CCCn1cc[n+](C)c1.O=S(=O)([N-]S(=O)(=O)C(F)(F)F)C(F)(F)F,No changes
CBgVn,298.15,101.0,1441.04,Gomez et al. (2012),Liquid,0.8086,ethanol,,,CCCn1cc[n+](C)c1.O=S(=O)([N-]S(=O)(=O)C(F)(F)F)C(F)(F)F,1-methyl-3-propylimidazolium bis[(trifluoromethyl)sulfonyl]imide,ABZxGx,CCO,ethanol,AAIsrh,CCCn1cc[n+](C)c1,O=S(=O)([N-]S(=O)(=O)C(F)(F)F)C(F)(F)F,2,0.1914,,,1778,False,CCCn1cc[n+](C)c1.O=S(=O)([N-]S(=O)(=O)C(F)(F)F)C(F)(F)F,No changes
CBgVn,298.15,101.0,1418.06,Gomez et al. (2012),Liquid,0.7052,ethanol,,,CCCn1cc[n+](C)c1.O=S(=O)([N-]S(=O)(=O)C(F)(F)F)C(F)(F)F,1-methyl-3-propylimidazolium bis[(trifluoromethyl)sulfonyl]imide,ABZxGx,CCO,ethanol,AAIsrh,CCCn1cc[n+](C)c1,O=S(=O)([N-]S(=O)(=O)C(F)(F)F)C(F)(F)F,2,0.2948,,,1779,False,CCCn1cc[n+](C)c1.O=S(=O)([N-]S(=O)(=O)C(F)(F)F)C(F)(F)F,No changes
CBgVn,298.15,101.0,1391.82,Gomez et al. (2012),Liquid,0.6091,ethanol,,,CCCn1cc[n+](C)c1.O=S(=O)([N-]S(=O)(=O)C(F)(F)F)C(F)(F)F,1-methyl-3-propylimidazolium bis[(trifluoromethyl)sulfonyl]imide,ABZxGx,CCO,ethanol,AAIsrh,CCCn1cc[n+](C)c1,O=S(=O)([N-]S(=O)(=O)C(F)(F)F)C(F)(F)F,2,0.3909,,,1780,False,CCCn1cc[n+](C)c1.O=S(=O)([N-]S(=O)(=O)C(F)(F)F)C(F)(F)F,No changes
CBgVn,298.15,101.0,1354.59,Gomez et al. (2012),Liquid,0.5008,ethanol,,,CCCn1cc[n+](C)c1.O=S(=O)([N-]S(=O)(=O)C(F)(F)F)C(F)(F)F,1-methyl-3-propylimidazolium bis[(trifluoromethyl)sulfonyl]imide,ABZxGx,CCO,ethanol,AAIsrh,CCCn1cc[n+](C)c1,O=S(=O)([N-]S(=O)(=O)C(F)(F)F)C(F)(F)F,2,0.4992,,,1781,False,CCCn1cc[n+](C)c1.O=S(=O)([N-]S(=O)(=O)C(F)(F)F)C(F)(F)F,No changes
CBgVn,298.15,101.0,1313.64,Gomez et al. (2012),Liquid,0.4088,ethanol,,,CCCn1cc[n+](C)c1.O=S(=O)([N-]S(=O)(=O)C(F)(F)F)C(F)(F)F,1-methyl-3-propylimidazolium bis[(trifluoromethyl)sulfonyl]imide,ABZxGx,CCO,ethanol,AAIsrh,CCCn1cc[n+](C)c1,O=S(=O)([N-]S(=O)(=O)C(F)(F)F)C(F)(F)F,2,0.5912,,,1782,False,CCCn1cc[n+](C)c1.O=S(=O)([N-]S(=O)(=O)C(F)(F)F)C(F)(F)F,No changes
CBgVn,298.15,101.0,1249.77,Gomez et al. (2012),Liquid,0.3022,ethanol,,,CCCn1cc[n+](C)c1.O=S(=O)([N-]S(=O)(=O)C(F)(F)F)C(F)(F)F,1-methyl-3-propylimidazolium bis[(trifluoromethyl)sulfonyl]imide,ABZxGx,CCO,ethanol,AAIsrh,CCCn1cc[n+](C)c1,O=S(=O)([N-]S(=O)(=O)C(F)(F)F)C(F)(F)F,2,0.6978,,,1783,False,CCCn1cc[n+](C)c1.O=S(=O)([N-]S(=O)(=O)C(F)(F)F)C(F)(F)F,No changes
CBgVn,298.15,101.0,1167.28,Gomez et al. (2012),Liquid,0.2062,ethanol,,,CCCn1cc[n+](C)c1.O=S(=O)([N-]S(=O)(=O)C(F)(F)F)C(F)(F)F,1-methyl-3-propylimidazolium bis[(trifluoromethyl)sulfonyl]imide,ABZxGx,CCO,ethanol,AAIsrh,CCCn1cc[n+](C)c1,O=S(=O)([N-]S(=O)(=O)C(F)(F)F)C(F)(F)F,2,0.7938,,,1784,False,CCCn1cc[n+](C)c1.O=S(=O)([N-]S(=O)(=O)C(F)(F)F)C(F)(F)F,No changes
CBgVn,298.15,101.0,1033.88,Gomez et al. (2012),Liquid,0.1049999999999999,ethanol,,,CCCn1cc[n+](C)c1.O=S(=O)([N-]S(=O)(=O)C(F)(F)F)C(F)(F)F,1-methyl-3-propylimidazolium bis[(trifluoromethyl)sulfonyl]imide,ABZxGx,CCO,ethanol,AAIsrh,CCCn1cc[n+](C)c1,O=S(=O)([N-]S(=O)(=O)C(F)(F)F)C(F)(F)F,2,0.895,,,1785,False,CCCn1cc[n+](C)c1.O=S(=O)([N-]S(=O)(=O)C(F)(F)F)C(F)(F)F,No changes
CBgVn,298.15,101.0,940.65,Gomez et al. (2012),Liquid,0.0568999999999999,ethanol,,,CCCn1cc[n+](C)c1.O=S(=O)([N-]S(=O)(=O)C(F)(F)F)C(F)(F)F,1-methyl-3-propylimidazolium bis[(trifluoromethyl)sulfonyl]imide,ABZxGx,CCO,ethanol,AAIsrh,CCCn1cc[n+](C)c1,O=S(=O)([N-]S(=O)(=O)C(F)(F)F)C(F)(F)F,2,0.9431,,,1786,False,CCCn1cc[n+](C)c1.O=S(=O)([N-]S(=O)(=O)C(F)(F)F)C(F)(F)F,No changes
CBgVn,298.15,101.0,785.33,Gomez et al. (2012),Liquid,0.0,ethanol,,,CCCn1cc[n+](C)c1.O=S(=O)([N-]S(=O)(=O)C(F)(F)F)C(F)(F)F,1-methyl-3-propylimidazolium bis[(trifluoromethyl)sulfonyl]imide,ABZxGx,CCO,ethanol,AAIsrh,CCCn1cc[n+](C)c1,O=S(=O)([N-]S(=O)(=O)C(F)(F)F)C(F)(F)F,2,1.0,,,1787,False,CCCn1cc[n+](C)c1.O=S(=O)([N-]S(=O)(=O)C(F)(F)F)C(F)(F)F,No changes
VwbHb,298.15,101.0,850.62,Iglesias-Otero et al. (2008a),Liquid,0.0459,1-butyl-3-methylimidazolium methyl sulfate,,,CCCC[n+]1ccn(C)c1.COS(=O)(=O)[O-],1-butyl-3-methylimidazolium methyl sulfate,AAwHNg,CCO,ethanol,AAIsrh,CCCC[n+]1ccn(C)c1,COS(=O)(=O)[O-],2,,,,1788,False,CCCC[n+]1ccn(C)c1.COS(=O)(=O)[O-],No changes
VwbHb,298.15,101.0,909.24,Iglesias-Otero et al. (2008a),Liquid,0.0987,1-butyl-3-methylimidazolium methyl sulfate,,,CCCC[n+]1ccn(C)c1.COS(=O)(=O)[O-],1-butyl-3-methylimidazolium methyl sulfate,AAwHNg,CCO,ethanol,AAIsrh,CCCC[n+]1ccn(C)c1,COS(=O)(=O)[O-],2,,,,1789,False,CCCC[n+]1ccn(C)c1.COS(=O)(=O)[O-],No changes
VwbHb,298.15,101.0,948.07,Iglesias-Otero et al. (2008a),Liquid,0.142,1-butyl-3-methylimidazolium methyl sulfate,,,CCCC[n+]1ccn(C)c1.COS(=O)(=O)[O-],1-butyl-3-methylimidazolium methyl sulfate,AAwHNg,CCO,ethanol,AAIsrh,CCCC[n+]1ccn(C)c1,COS(=O)(=O)[O-],2,,,,1790,False,CCCC[n+]1ccn(C)c1.COS(=O)(=O)[O-],No changes
VwbHb,298.15,101.0,984.34,Iglesias-Otero et al. (2008a),Liquid,0.1905,1-butyl-3-methylimidazolium methyl sulfate,,,CCCC[n+]1ccn(C)c1.COS(=O)(=O)[O-],1-butyl-3-methylimidazolium methyl sulfate,AAwHNg,CCO,ethanol,AAIsrh,CCCC[n+]1ccn(C)c1,COS(=O)(=O)[O-],2,,,,1791,False,CCCC[n+]1ccn(C)c1.COS(=O)(=O)[O-],No changes
VwbHb,298.15,101.0,1012.98,Iglesias-Otero et al. (2008a),Liquid,0.2357,1-butyl-3-methylimidazolium methyl sulfate,,,CCCC[n+]1ccn(C)c1.COS(=O)(=O)[O-],1-butyl-3-methylimidazolium methyl sulfate,AAwHNg,CCO,ethanol,AAIsrh,CCCC[n+]1ccn(C)c1,COS(=O)(=O)[O-],2,,,,1792,False,CCCC[n+]1ccn(C)c1.COS(=O)(=O)[O-],No changes
VwbHb,298.15,101.0,1033.54,Iglesias-Otero et al. (2008a),Liquid,0.2733,1-butyl-3-methylimidazolium methyl sulfate,,,CCCC[n+]1ccn(C)c1.COS(=O)(=O)[O-],1-butyl-3-methylimidazolium methyl sulfate,AAwHNg,CCO,ethanol,AAIsrh,CCCC[n+]1ccn(C)c1,COS(=O)(=O)[O-],2,,,,1793,False,CCCC[n+]1ccn(C)c1.COS(=O)(=O)[O-],No changes
VwbHb,298.15,101.0,1069.63,Iglesias-Otero et al. (2008a),Liquid,0.3516,1-butyl-3-methylimidazolium methyl sulfate,,,CCCC[n+]1ccn(C)c1.COS(=O)(=O)[O-],1-butyl-3-methylimidazolium methyl sulfate,AAwHNg,CCO,ethanol,AAIsrh,CCCC[n+]1ccn(C)c1,COS(=O)(=O)[O-],2,,,,1794,False,CCCC[n+]1ccn(C)c1.COS(=O)(=O)[O-],No changes
VwbHb,298.15,101.0,1101.3,Iglesias-Otero et al. (2008a),Liquid,0.4381,1-butyl-3-methylimidazolium methyl sulfate,,,CCCC[n+]1ccn(C)c1.COS(=O)(=O)[O-],1-butyl-3-methylimidazolium methyl sulfate,AAwHNg,CCO,ethanol,AAIsrh,CCCC[n+]1ccn(C)c1,COS(=O)(=O)[O-],2,,,,1795,False,CCCC[n+]1ccn(C)c1.COS(=O)(=O)[O-],No changes
VwbHb,298.15,101.0,1129.08,Iglesias-Otero et al. (2008a),Liquid,0.5335,1-butyl-3-methylimidazolium methyl sulfate,,,CCCC[n+]1ccn(C)c1.COS(=O)(=O)[O-],1-butyl-3-methylimidazolium methyl sulfate,AAwHNg,CCO,ethanol,AAIsrh,CCCC[n+]1ccn(C)c1,COS(=O)(=O)[O-],2,,,,1796,False,CCCC[n+]1ccn(C)c1.COS(=O)(=O)[O-],No changes
VwbHb,298.15,101.0,1138.45,Iglesias-Otero et al. (2008a),Liquid,0.5712,1-butyl-3-methylimidazolium methyl sulfate,,,CCCC[n+]1ccn(C)c1.COS(=O)(=O)[O-],1-butyl-3-methylimidazolium methyl sulfate,AAwHNg,CCO,ethanol,AAIsrh,CCCC[n+]1ccn(C)c1,COS(=O)(=O)[O-],2,,,,1797,False,CCCC[n+]1ccn(C)c1.COS(=O)(=O)[O-],No changes
VwbHb,298.15,101.0,1160.39,Iglesias-Otero et al. (2008a),Liquid,0.6742,1-butyl-3-methylimidazolium methyl sulfate,,,CCCC[n+]1ccn(C)c1.COS(=O)(=O)[O-],1-butyl-3-methylimidazolium methyl sulfate,AAwHNg,CCO,ethanol,AAIsrh,CCCC[n+]1ccn(C)c1,COS(=O)(=O)[O-],2,,,,1798,False,CCCC[n+]1ccn(C)c1.COS(=O)(=O)[O-],No changes
VwbHb,298.15,101.0,1176.77,Iglesias-Otero et al. (2008a),Liquid,0.7665,1-butyl-3-methylimidazolium methyl sulfate,,,CCCC[n+]1ccn(C)c1.COS(=O)(=O)[O-],1-butyl-3-methylimidazolium methyl sulfate,AAwHNg,CCO,ethanol,AAIsrh,CCCC[n+]1ccn(C)c1,COS(=O)(=O)[O-],2,,,,1799,False,CCCC[n+]1ccn(C)c1.COS(=O)(=O)[O-],No changes
VwbHb,298.15,101.0,1188.91,Iglesias-Otero et al. (2008a),Liquid,0.8482,1-butyl-3-methylimidazolium methyl sulfate,,,CCCC[n+]1ccn(C)c1.COS(=O)(=O)[O-],1-butyl-3-methylimidazolium methyl sulfate,AAwHNg,CCO,ethanol,AAIsrh,CCCC[n+]1ccn(C)c1,COS(=O)(=O)[O-],2,,,,1800,False,CCCC[n+]1ccn(C)c1.COS(=O)(=O)[O-],No changes
VwbHb,298.15,101.0,1199.03,Iglesias-Otero et al. (2008a),Liquid,0.9248,1-butyl-3-methylimidazolium methyl sulfate,,,CCCC[n+]1ccn(C)c1.COS(=O)(=O)[O-],1-butyl-3-methylimidazolium methyl sulfate,AAwHNg,CCO,ethanol,AAIsrh,CCCC[n+]1ccn(C)c1,COS(=O)(=O)[O-],2,,,,1801,False,CCCC[n+]1ccn(C)c1.COS(=O)(=O)[O-],No changes
VBmhv,293.15,101.0,789.3,Pereiro and Rodriguez (2007b),Liquid,0.0,1-butyl-3-methylimidazolium methyl sulfate,,,CCCC[n+]1ccn(C)c1.COS(=O)(=O)[O-],1-butyl-3-methylimidazolium methyl sulfate,AAwHNg,CCO,ethanol,AAIsrh,CCCC[n+]1ccn(C)c1,COS(=O)(=O)[O-],2,,,,1802,False,CCCC[n+]1ccn(C)c1.COS(=O)(=O)[O-],No changes
VBmhv,293.15,101.0,860.2,Pereiro and Rodriguez (2007b),Liquid,0.0501,1-butyl-3-methylimidazolium methyl sulfate,,,CCCC[n+]1ccn(C)c1.COS(=O)(=O)[O-],1-butyl-3-methylimidazolium methyl sulfate,AAwHNg,CCO,ethanol,AAIsrh,CCCC[n+]1ccn(C)c1,COS(=O)(=O)[O-],2,,,,1803,False,CCCC[n+]1ccn(C)c1.COS(=O)(=O)[O-],No changes
VBmhv,293.15,101.0,916.9,Pereiro and Rodriguez (2007b),Liquid,0.1015,1-butyl-3-methylimidazolium methyl sulfate,,,CCCC[n+]1ccn(C)c1.COS(=O)(=O)[O-],1-butyl-3-methylimidazolium methyl sulfate,AAwHNg,CCO,ethanol,AAIsrh,CCCC[n+]1ccn(C)c1,COS(=O)(=O)[O-],2,,,,1804,False,CCCC[n+]1ccn(C)c1.COS(=O)(=O)[O-],No changes
VBmhv,293.15,101.0,993.7,Pereiro and Rodriguez (2007b),Liquid,0.1961,1-butyl-3-methylimidazolium methyl sulfate,,,CCCC[n+]1ccn(C)c1.COS(=O)(=O)[O-],1-butyl-3-methylimidazolium methyl sulfate,AAwHNg,CCO,ethanol,AAIsrh,CCCC[n+]1ccn(C)c1,COS(=O)(=O)[O-],2,,,,1805,False,CCCC[n+]1ccn(C)c1.COS(=O)(=O)[O-],No changes
VBmhv,293.15,101.0,1052.2,Pereiro and Rodriguez (2007b),Liquid,0.299,1-butyl-3-methylimidazolium methyl sulfate,,,CCCC[n+]1ccn(C)c1.COS(=O)(=O)[O-],1-butyl-3-methylimidazolium methyl sulfate,AAwHNg,CCO,ethanol,AAIsrh,CCCC[n+]1ccn(C)c1,COS(=O)(=O)[O-],2,,,,1806,False,CCCC[n+]1ccn(C)c1.COS(=O)(=O)[O-],No changes
VBmhv,293.15,101.0,1091.3,Pereiro and Rodriguez (2007b),Liquid,0.3914,1-butyl-3-methylimidazolium methyl sulfate,,,CCCC[n+]1ccn(C)c1.COS(=O)(=O)[O-],1-butyl-3-methylimidazolium methyl sulfate,AAwHNg,CCO,ethanol,AAIsrh,CCCC[n+]1ccn(C)c1,COS(=O)(=O)[O-],2,,,,1807,False,CCCC[n+]1ccn(C)c1.COS(=O)(=O)[O-],No changes
VBmhv,293.15,101.0,1127.3,Pereiro and Rodriguez (2007b),Liquid,0.5025,1-butyl-3-methylimidazolium methyl sulfate,,,CCCC[n+]1ccn(C)c1.COS(=O)(=O)[O-],1-butyl-3-methylimidazolium methyl sulfate,AAwHNg,CCO,ethanol,AAIsrh,CCCC[n+]1ccn(C)c1,COS(=O)(=O)[O-],2,,,,1808,False,CCCC[n+]1ccn(C)c1.COS(=O)(=O)[O-],No changes
VBmhv,293.15,101.0,1153.5,Pereiro and Rodriguez (2007b),Liquid,0.6073,1-butyl-3-methylimidazolium methyl sulfate,,,CCCC[n+]1ccn(C)c1.COS(=O)(=O)[O-],1-butyl-3-methylimidazolium methyl sulfate,AAwHNg,CCO,ethanol,AAIsrh,CCCC[n+]1ccn(C)c1,COS(=O)(=O)[O-],2,,,,1809,False,CCCC[n+]1ccn(C)c1.COS(=O)(=O)[O-],No changes
VBmhv,293.15,101.0,1172.0,Pereiro and Rodriguez (2007b),Liquid,0.6982,1-butyl-3-methylimidazolium methyl sulfate,,,CCCC[n+]1ccn(C)c1.COS(=O)(=O)[O-],1-butyl-3-methylimidazolium methyl sulfate,AAwHNg,CCO,ethanol,AAIsrh,CCCC[n+]1ccn(C)c1,COS(=O)(=O)[O-],2,,,,1810,False,CCCC[n+]1ccn(C)c1.COS(=O)(=O)[O-],No changes
VBmhv,293.15,101.0,1189.2,Pereiro and Rodriguez (2007b),Liquid,0.8002,1-butyl-3-methylimidazolium methyl sulfate,,,CCCC[n+]1ccn(C)c1.COS(=O)(=O)[O-],1-butyl-3-methylimidazolium methyl sulfate,AAwHNg,CCO,ethanol,AAIsrh,CCCC[n+]1ccn(C)c1,COS(=O)(=O)[O-],2,,,,1811,False,CCCC[n+]1ccn(C)c1.COS(=O)(=O)[O-],No changes
VBmhv,293.15,101.0,1203.1,Pereiro and Rodriguez (2007b),Liquid,0.8992,1-butyl-3-methylimidazolium methyl sulfate,,,CCCC[n+]1ccn(C)c1.COS(=O)(=O)[O-],1-butyl-3-methylimidazolium methyl sulfate,AAwHNg,CCO,ethanol,AAIsrh,CCCC[n+]1ccn(C)c1,COS(=O)(=O)[O-],2,,,,1812,False,CCCC[n+]1ccn(C)c1.COS(=O)(=O)[O-],No changes
VBmhv,293.15,101.0,1209.5,Pereiro and Rodriguez (2007b),Liquid,0.9498,1-butyl-3-methylimidazolium methyl sulfate,,,CCCC[n+]1ccn(C)c1.COS(=O)(=O)[O-],1-butyl-3-methylimidazolium methyl sulfate,AAwHNg,CCO,ethanol,AAIsrh,CCCC[n+]1ccn(C)c1,COS(=O)(=O)[O-],2,,,,1813,False,CCCC[n+]1ccn(C)c1.COS(=O)(=O)[O-],No changes
VBmhv,293.15,101.0,1215.6,Pereiro and Rodriguez (2007b),Liquid,1.0,1-butyl-3-methylimidazolium methyl sulfate,,,CCCC[n+]1ccn(C)c1.COS(=O)(=O)[O-],1-butyl-3-methylimidazolium methyl sulfate,AAwHNg,CCO,ethanol,AAIsrh,CCCC[n+]1ccn(C)c1,COS(=O)(=O)[O-],2,,,,1814,False,CCCC[n+]1ccn(C)c1.COS(=O)(=O)[O-],No changes
VBmhv,298.15,101.0,785.1,Pereiro and Rodriguez (2007b),Liquid,0.0,1-butyl-3-methylimidazolium methyl sulfate,,,CCCC[n+]1ccn(C)c1.COS(=O)(=O)[O-],1-butyl-3-methylimidazolium methyl sulfate,AAwHNg,CCO,ethanol,AAIsrh,CCCC[n+]1ccn(C)c1,COS(=O)(=O)[O-],2,,,,1815,False,CCCC[n+]1ccn(C)c1.COS(=O)(=O)[O-],No changes
VBmhv,298.15,101.0,856.4,Pereiro and Rodriguez (2007b),Liquid,0.0501,1-butyl-3-methylimidazolium methyl sulfate,,,CCCC[n+]1ccn(C)c1.COS(=O)(=O)[O-],1-butyl-3-methylimidazolium methyl sulfate,AAwHNg,CCO,ethanol,AAIsrh,CCCC[n+]1ccn(C)c1,COS(=O)(=O)[O-],2,,,,1816,False,CCCC[n+]1ccn(C)c1.COS(=O)(=O)[O-],No changes
VBmhv,298.15,101.0,913.0,Pereiro and Rodriguez (2007b),Liquid,0.1015,1-butyl-3-methylimidazolium methyl sulfate,,,CCCC[n+]1ccn(C)c1.COS(=O)(=O)[O-],1-butyl-3-methylimidazolium methyl sulfate,AAwHNg,CCO,ethanol,AAIsrh,CCCC[n+]1ccn(C)c1,COS(=O)(=O)[O-],2,,,,1817,False,CCCC[n+]1ccn(C)c1.COS(=O)(=O)[O-],No changes
VBmhv,298.15,101.0,990.0,Pereiro and Rodriguez (2007b),Liquid,0.1961,1-butyl-3-methylimidazolium methyl sulfate,,,CCCC[n+]1ccn(C)c1.COS(=O)(=O)[O-],1-butyl-3-methylimidazolium methyl sulfate,AAwHNg,CCO,ethanol,AAIsrh,CCCC[n+]1ccn(C)c1,COS(=O)(=O)[O-],2,,,,1818,False,CCCC[n+]1ccn(C)c1.COS(=O)(=O)[O-],No changes
VBmhv,298.15,101.0,1048.6,Pereiro and Rodriguez (2007b),Liquid,0.299,1-butyl-3-methylimidazolium methyl sulfate,,,CCCC[n+]1ccn(C)c1.COS(=O)(=O)[O-],1-butyl-3-methylimidazolium methyl sulfate,AAwHNg,CCO,ethanol,AAIsrh,CCCC[n+]1ccn(C)c1,COS(=O)(=O)[O-],2,,,,1819,False,CCCC[n+]1ccn(C)c1.COS(=O)(=O)[O-],No changes
VBmhv,298.15,101.0,1087.8,Pereiro and Rodriguez (2007b),Liquid,0.3914,1-butyl-3-methylimidazolium methyl sulfate,,,CCCC[n+]1ccn(C)c1.COS(=O)(=O)[O-],1-butyl-3-methylimidazolium methyl sulfate,AAwHNg,CCO,ethanol,AAIsrh,CCCC[n+]1ccn(C)c1,COS(=O)(=O)[O-],2,,,,1820,False,CCCC[n+]1ccn(C)c1.COS(=O)(=O)[O-],No changes
VBmhv,298.15,101.0,1123.7,Pereiro and Rodriguez (2007b),Liquid,0.5025,1-butyl-3-methylimidazolium methyl sulfate,,,CCCC[n+]1ccn(C)c1.COS(=O)(=O)[O-],1-butyl-3-methylimidazolium methyl sulfate,AAwHNg,CCO,ethanol,AAIsrh,CCCC[n+]1ccn(C)c1,COS(=O)(=O)[O-],2,,,,1821,False,CCCC[n+]1ccn(C)c1.COS(=O)(=O)[O-],No changes
VBmhv,298.15,101.0,1150.0,Pereiro and Rodriguez (2007b),Liquid,0.6073,1-butyl-3-methylimidazolium methyl sulfate,,,CCCC[n+]1ccn(C)c1.COS(=O)(=O)[O-],1-butyl-3-methylimidazolium methyl sulfate,AAwHNg,CCO,ethanol,AAIsrh,CCCC[n+]1ccn(C)c1,COS(=O)(=O)[O-],2,,,,1822,False,CCCC[n+]1ccn(C)c1.COS(=O)(=O)[O-],No changes
VBmhv,298.15,101.0,1168.5,Pereiro and Rodriguez (2007b),Liquid,0.6982,1-butyl-3-methylimidazolium methyl sulfate,,,CCCC[n+]1ccn(C)c1.COS(=O)(=O)[O-],1-butyl-3-methylimidazolium methyl sulfate,AAwHNg,CCO,ethanol,AAIsrh,CCCC[n+]1ccn(C)c1,COS(=O)(=O)[O-],2,,,,1823,False,CCCC[n+]1ccn(C)c1.COS(=O)(=O)[O-],No changes
VBmhv,298.15,101.0,1185.6,Pereiro and Rodriguez (2007b),Liquid,0.8002,1-butyl-3-methylimidazolium methyl sulfate,,,CCCC[n+]1ccn(C)c1.COS(=O)(=O)[O-],1-butyl-3-methylimidazolium methyl sulfate,AAwHNg,CCO,ethanol,AAIsrh,CCCC[n+]1ccn(C)c1,COS(=O)(=O)[O-],2,,,,1824,False,CCCC[n+]1ccn(C)c1.COS(=O)(=O)[O-],No changes