setid,Temperature (K),Pressure (kPa),Density (kg/m3),reference,phases,Mole fraction,Mole fraction of compound name,Weight fraction,Weight fraction of compound name,IL_SMILES,IL_name,IL_ID,Solvent_SMILES,Solvent_name,Solvent_ID,IL_cation_SMILES,IL_anion_SMILES,IL_component_number,Mole fraction of solvent,IL_MW,Solvent_MW,Record_ID,Contains_Metal,Standardized_IL_SMILES,Changes
YyDrb,298.15,101.0,1141.2,Pereiro and Rodriguez (2008e),Liquid,0.5057,1-octyl-3-methylimidazolium hexafluorophosphate,,,CCCCCCCC[n+]1ccn(C)c1.F[P-](F)(F)(F)(F)F,1-octyl-3-methylimidazolium hexafluorophosphate,ABNWoR,CC(C)O,propan-2-ol,AALcwx,CCCCCCCC[n+]1ccn(C)c1,F[P-](F)(F)(F)(F)F,2,,,,338,False,CCCCCCCC[n+]1ccn(C)c1.F[P-](F)(F)(F)(F)F,No changes
YyDrb,298.15,101.0,1166.5,Pereiro and Rodriguez (2008e),Liquid,0.5991,1-octyl-3-methylimidazolium hexafluorophosphate,,,CCCCCCCC[n+]1ccn(C)c1.F[P-](F)(F)(F)(F)F,1-octyl-3-methylimidazolium hexafluorophosphate,ABNWoR,CC(C)O,propan-2-ol,AALcwx,CCCCCCCC[n+]1ccn(C)c1,F[P-](F)(F)(F)(F)F,2,,,,339,False,CCCCCCCC[n+]1ccn(C)c1.F[P-](F)(F)(F)(F)F,No changes
YyDrb,298.15,101.0,1188.1,Pereiro and Rodriguez (2008e),Liquid,0.696,1-octyl-3-methylimidazolium hexafluorophosphate,,,CCCCCCCC[n+]1ccn(C)c1.F[P-](F)(F)(F)(F)F,1-octyl-3-methylimidazolium hexafluorophosphate,ABNWoR,CC(C)O,propan-2-ol,AALcwx,CCCCCCCC[n+]1ccn(C)c1,F[P-](F)(F)(F)(F)F,2,,,,340,False,CCCCCCCC[n+]1ccn(C)c1.F[P-](F)(F)(F)(F)F,No changes
YyDrb,298.15,101.0,1207.1,Pereiro and Rodriguez (2008e),Liquid,0.7988,1-octyl-3-methylimidazolium hexafluorophosphate,,,CCCCCCCC[n+]1ccn(C)c1.F[P-](F)(F)(F)(F)F,1-octyl-3-methylimidazolium hexafluorophosphate,ABNWoR,CC(C)O,propan-2-ol,AALcwx,CCCCCCCC[n+]1ccn(C)c1,F[P-](F)(F)(F)(F)F,2,,,,341,False,CCCCCCCC[n+]1ccn(C)c1.F[P-](F)(F)(F)(F)F,No changes
YyDrb,298.15,101.0,1223.3,Pereiro and Rodriguez (2008e),Liquid,0.9035,1-octyl-3-methylimidazolium hexafluorophosphate,,,CCCCCCCC[n+]1ccn(C)c1.F[P-](F)(F)(F)(F)F,1-octyl-3-methylimidazolium hexafluorophosphate,ABNWoR,CC(C)O,propan-2-ol,AALcwx,CCCCCCCC[n+]1ccn(C)c1,F[P-](F)(F)(F)(F)F,2,,,,342,False,CCCCCCCC[n+]1ccn(C)c1.F[P-](F)(F)(F)(F)F,No changes
YyDrb,298.15,101.0,1235.0,Pereiro and Rodriguez (2008e),Liquid,0.9931,1-octyl-3-methylimidazolium hexafluorophosphate,,,CCCCCCCC[n+]1ccn(C)c1.F[P-](F)(F)(F)(F)F,1-octyl-3-methylimidazolium hexafluorophosphate,ABNWoR,CC(C)O,propan-2-ol,AALcwx,CCCCCCCC[n+]1ccn(C)c1,F[P-](F)(F)(F)(F)F,2,,,,343,False,CCCCCCCC[n+]1ccn(C)c1.F[P-](F)(F)(F)(F)F,No changes
YyDrb,298.15,101.0,1235.7,Pereiro and Rodriguez (2008e),Liquid,1.0,1-octyl-3-methylimidazolium hexafluorophosphate,,,CCCCCCCC[n+]1ccn(C)c1.F[P-](F)(F)(F)(F)F,1-octyl-3-methylimidazolium hexafluorophosphate,ABNWoR,CC(C)O,propan-2-ol,AALcwx,CCCCCCCC[n+]1ccn(C)c1,F[P-](F)(F)(F)(F)F,2,,,,344,False,CCCCCCCC[n+]1ccn(C)c1.F[P-](F)(F)(F)(F)F,No changes
YyDrb,303.15,101.0,776.6,Pereiro and Rodriguez (2008e),Liquid,0.0,1-octyl-3-methylimidazolium hexafluorophosphate,,,CCCCCCCC[n+]1ccn(C)c1.F[P-](F)(F)(F)(F)F,1-octyl-3-methylimidazolium hexafluorophosphate,ABNWoR,CC(C)O,propan-2-ol,AALcwx,CCCCCCCC[n+]1ccn(C)c1,F[P-](F)(F)(F)(F)F,2,,,,345,False,CCCCCCCC[n+]1ccn(C)c1.F[P-](F)(F)(F)(F)F,No changes
YyDrb,303.15,101.0,777.3,Pereiro and Rodriguez (2008e),Liquid,0.0004,1-octyl-3-methylimidazolium hexafluorophosphate,,,CCCCCCCC[n+]1ccn(C)c1.F[P-](F)(F)(F)(F)F,1-octyl-3-methylimidazolium hexafluorophosphate,ABNWoR,CC(C)O,propan-2-ol,AALcwx,CCCCCCCC[n+]1ccn(C)c1,F[P-](F)(F)(F)(F)F,2,,,,346,False,CCCCCCCC[n+]1ccn(C)c1.F[P-](F)(F)(F)(F)F,No changes
YyDrb,303.15,101.0,778.2,Pereiro and Rodriguez (2008e),Liquid,0.0009,1-octyl-3-methylimidazolium hexafluorophosphate,,,CCCCCCCC[n+]1ccn(C)c1.F[P-](F)(F)(F)(F)F,1-octyl-3-methylimidazolium hexafluorophosphate,ABNWoR,CC(C)O,propan-2-ol,AALcwx,CCCCCCCC[n+]1ccn(C)c1,F[P-](F)(F)(F)(F)F,2,,,,347,False,CCCCCCCC[n+]1ccn(C)c1.F[P-](F)(F)(F)(F)F,No changes
YyDrb,303.15,101.0,779.1,Pereiro and Rodriguez (2008e),Liquid,0.0014,1-octyl-3-methylimidazolium hexafluorophosphate,,,CCCCCCCC[n+]1ccn(C)c1.F[P-](F)(F)(F)(F)F,1-octyl-3-methylimidazolium hexafluorophosphate,ABNWoR,CC(C)O,propan-2-ol,AALcwx,CCCCCCCC[n+]1ccn(C)c1,F[P-](F)(F)(F)(F)F,2,,,,348,False,CCCCCCCC[n+]1ccn(C)c1.F[P-](F)(F)(F)(F)F,No changes
YyDrb,303.15,101.0,780.7,Pereiro and Rodriguez (2008e),Liquid,0.0024,1-octyl-3-methylimidazolium hexafluorophosphate,,,CCCCCCCC[n+]1ccn(C)c1.F[P-](F)(F)(F)(F)F,1-octyl-3-methylimidazolium hexafluorophosphate,ABNWoR,CC(C)O,propan-2-ol,AALcwx,CCCCCCCC[n+]1ccn(C)c1,F[P-](F)(F)(F)(F)F,2,,,,349,False,CCCCCCCC[n+]1ccn(C)c1.F[P-](F)(F)(F)(F)F,No changes
YyDrb,303.15,101.0,781.8,Pereiro and Rodriguez (2008e),Liquid,0.003,1-octyl-3-methylimidazolium hexafluorophosphate,,,CCCCCCCC[n+]1ccn(C)c1.F[P-](F)(F)(F)(F)F,1-octyl-3-methylimidazolium hexafluorophosphate,ABNWoR,CC(C)O,propan-2-ol,AALcwx,CCCCCCCC[n+]1ccn(C)c1,F[P-](F)(F)(F)(F)F,2,,,,350,False,CCCCCCCC[n+]1ccn(C)c1.F[P-](F)(F)(F)(F)F,No changes
YyDrb,303.15,101.0,785.7,Pereiro and Rodriguez (2008e),Liquid,0.0053,1-octyl-3-methylimidazolium hexafluorophosphate,,,CCCCCCCC[n+]1ccn(C)c1.F[P-](F)(F)(F)(F)F,1-octyl-3-methylimidazolium hexafluorophosphate,ABNWoR,CC(C)O,propan-2-ol,AALcwx,CCCCCCCC[n+]1ccn(C)c1,F[P-](F)(F)(F)(F)F,2,,,,351,False,CCCCCCCC[n+]1ccn(C)c1.F[P-](F)(F)(F)(F)F,No changes
YyDrb,303.15,101.0,793.2,Pereiro and Rodriguez (2008e),Liquid,0.0098,1-octyl-3-methylimidazolium hexafluorophosphate,,,CCCCCCCC[n+]1ccn(C)c1.F[P-](F)(F)(F)(F)F,1-octyl-3-methylimidazolium hexafluorophosphate,ABNWoR,CC(C)O,propan-2-ol,AALcwx,CCCCCCCC[n+]1ccn(C)c1,F[P-](F)(F)(F)(F)F,2,,,,352,False,CCCCCCCC[n+]1ccn(C)c1.F[P-](F)(F)(F)(F)F,No changes
YyDrb,303.15,101.0,1029.7,Pereiro and Rodriguez (2008e),Liquid,0.2531,1-octyl-3-methylimidazolium hexafluorophosphate,,,CCCCCCCC[n+]1ccn(C)c1.F[P-](F)(F)(F)(F)F,1-octyl-3-methylimidazolium hexafluorophosphate,ABNWoR,CC(C)O,propan-2-ol,AALcwx,CCCCCCCC[n+]1ccn(C)c1,F[P-](F)(F)(F)(F)F,2,,,,353,False,CCCCCCCC[n+]1ccn(C)c1.F[P-](F)(F)(F)(F)F,No changes
YyDrb,303.15,101.0,1057.5,Pereiro and Rodriguez (2008e),Liquid,0.3036,1-octyl-3-methylimidazolium hexafluorophosphate,,,CCCCCCCC[n+]1ccn(C)c1.F[P-](F)(F)(F)(F)F,1-octyl-3-methylimidazolium hexafluorophosphate,ABNWoR,CC(C)O,propan-2-ol,AALcwx,CCCCCCCC[n+]1ccn(C)c1,F[P-](F)(F)(F)(F)F,2,,,,354,False,CCCCCCCC[n+]1ccn(C)c1.F[P-](F)(F)(F)(F)F,No changes
YyDrb,303.15,101.0,1080.3,Pereiro and Rodriguez (2008e),Liquid,0.3513,1-octyl-3-methylimidazolium hexafluorophosphate,,,CCCCCCCC[n+]1ccn(C)c1.F[P-](F)(F)(F)(F)F,1-octyl-3-methylimidazolium hexafluorophosphate,ABNWoR,CC(C)O,propan-2-ol,AALcwx,CCCCCCCC[n+]1ccn(C)c1,F[P-](F)(F)(F)(F)F,2,,,,355,False,CCCCCCCC[n+]1ccn(C)c1.F[P-](F)(F)(F)(F)F,No changes
YyDrb,303.15,101.0,1101.1,Pereiro and Rodriguez (2008e),Liquid,0.4011,1-octyl-3-methylimidazolium hexafluorophosphate,,,CCCCCCCC[n+]1ccn(C)c1.F[P-](F)(F)(F)(F)F,1-octyl-3-methylimidazolium hexafluorophosphate,ABNWoR,CC(C)O,propan-2-ol,AALcwx,CCCCCCCC[n+]1ccn(C)c1,F[P-](F)(F)(F)(F)F,2,,,,356,False,CCCCCCCC[n+]1ccn(C)c1.F[P-](F)(F)(F)(F)F,No changes
YyDrb,303.15,101.0,1137.1,Pereiro and Rodriguez (2008e),Liquid,0.5057,1-octyl-3-methylimidazolium hexafluorophosphate,,,CCCCCCCC[n+]1ccn(C)c1.F[P-](F)(F)(F)(F)F,1-octyl-3-methylimidazolium hexafluorophosphate,ABNWoR,CC(C)O,propan-2-ol,AALcwx,CCCCCCCC[n+]1ccn(C)c1,F[P-](F)(F)(F)(F)F,2,,,,357,False,CCCCCCCC[n+]1ccn(C)c1.F[P-](F)(F)(F)(F)F,No changes
YyDrb,303.15,101.0,1162.6,Pereiro and Rodriguez (2008e),Liquid,0.5991,1-octyl-3-methylimidazolium hexafluorophosphate,,,CCCCCCCC[n+]1ccn(C)c1.F[P-](F)(F)(F)(F)F,1-octyl-3-methylimidazolium hexafluorophosphate,ABNWoR,CC(C)O,propan-2-ol,AALcwx,CCCCCCCC[n+]1ccn(C)c1,F[P-](F)(F)(F)(F)F,2,,,,358,False,CCCCCCCC[n+]1ccn(C)c1.F[P-](F)(F)(F)(F)F,No changes
YyDrb,303.15,101.0,1184.2,Pereiro and Rodriguez (2008e),Liquid,0.696,1-octyl-3-methylimidazolium hexafluorophosphate,,,CCCCCCCC[n+]1ccn(C)c1.F[P-](F)(F)(F)(F)F,1-octyl-3-methylimidazolium hexafluorophosphate,ABNWoR,CC(C)O,propan-2-ol,AALcwx,CCCCCCCC[n+]1ccn(C)c1,F[P-](F)(F)(F)(F)F,2,,,,359,False,CCCCCCCC[n+]1ccn(C)c1.F[P-](F)(F)(F)(F)F,No changes
YyDrb,303.15,101.0,1203.2,Pereiro and Rodriguez (2008e),Liquid,0.7988,1-octyl-3-methylimidazolium hexafluorophosphate,,,CCCCCCCC[n+]1ccn(C)c1.F[P-](F)(F)(F)(F)F,1-octyl-3-methylimidazolium hexafluorophosphate,ABNWoR,CC(C)O,propan-2-ol,AALcwx,CCCCCCCC[n+]1ccn(C)c1,F[P-](F)(F)(F)(F)F,2,,,,360,False,CCCCCCCC[n+]1ccn(C)c1.F[P-](F)(F)(F)(F)F,No changes
YyDrb,303.15,101.0,1219.5,Pereiro and Rodriguez (2008e),Liquid,0.9035,1-octyl-3-methylimidazolium hexafluorophosphate,,,CCCCCCCC[n+]1ccn(C)c1.F[P-](F)(F)(F)(F)F,1-octyl-3-methylimidazolium hexafluorophosphate,ABNWoR,CC(C)O,propan-2-ol,AALcwx,CCCCCCCC[n+]1ccn(C)c1,F[P-](F)(F)(F)(F)F,2,,,,361,False,CCCCCCCC[n+]1ccn(C)c1.F[P-](F)(F)(F)(F)F,No changes
YyDrb,303.15,101.0,1231.2,Pereiro and Rodriguez (2008e),Liquid,0.9931,1-octyl-3-methylimidazolium hexafluorophosphate,,,CCCCCCCC[n+]1ccn(C)c1.F[P-](F)(F)(F)(F)F,1-octyl-3-methylimidazolium hexafluorophosphate,ABNWoR,CC(C)O,propan-2-ol,AALcwx,CCCCCCCC[n+]1ccn(C)c1,F[P-](F)(F)(F)(F)F,2,,,,362,False,CCCCCCCC[n+]1ccn(C)c1.F[P-](F)(F)(F)(F)F,No changes
YyDrb,303.15,101.0,1231.9,Pereiro and Rodriguez (2008e),Liquid,1.0,1-octyl-3-methylimidazolium hexafluorophosphate,,,CCCCCCCC[n+]1ccn(C)c1.F[P-](F)(F)(F)(F)F,1-octyl-3-methylimidazolium hexafluorophosphate,ABNWoR,CC(C)O,propan-2-ol,AALcwx,CCCCCCCC[n+]1ccn(C)c1,F[P-](F)(F)(F)(F)F,2,,,,363,False,CCCCCCCC[n+]1ccn(C)c1.F[P-](F)(F)(F)(F)F,No changes
ksQVB,293.15,101.0,785.25,Kermanpour (2012),Liquid,0.0,1-hexyl-3-methylimidazolium tetrafluoroborate,,,CCCCCC[n+]1ccn(C)c1.F[B-](F)(F)F,1-hexyl-3-methylimidazolium tetrafluoroborate,AAwscj,CC(C)O,propan-2-ol,AALcwx,CCCCCC[n+]1ccn(C)c1,F[B-](F)(F)F,2,,,,364,False,CCCCCC[n+]1ccn(C)c1.F[B-](F)(F)F,No changes
ksQVB,293.15,101.0,862.79,Kermanpour (2012),Liquid,0.0835,1-hexyl-3-methylimidazolium tetrafluoroborate,,,CCCCCC[n+]1ccn(C)c1.F[B-](F)(F)F,1-hexyl-3-methylimidazolium tetrafluoroborate,AAwscj,CC(C)O,propan-2-ol,AALcwx,CCCCCC[n+]1ccn(C)c1,F[B-](F)(F)F,2,,,,365,False,CCCCCC[n+]1ccn(C)c1.F[B-](F)(F)F,No changes
ksQVB,293.15,101.0,961.29,Kermanpour (2012),Liquid,0.238,1-hexyl-3-methylimidazolium tetrafluoroborate,,,CCCCCC[n+]1ccn(C)c1.F[B-](F)(F)F,1-hexyl-3-methylimidazolium tetrafluoroborate,AAwscj,CC(C)O,propan-2-ol,AALcwx,CCCCCC[n+]1ccn(C)c1,F[B-](F)(F)F,2,,,,366,False,CCCCCC[n+]1ccn(C)c1.F[B-](F)(F)F,No changes
ksQVB,293.15,101.0,987.12,Kermanpour (2012),Liquid,0.2933,1-hexyl-3-methylimidazolium tetrafluoroborate,,,CCCCCC[n+]1ccn(C)c1.F[B-](F)(F)F,1-hexyl-3-methylimidazolium tetrafluoroborate,AAwscj,CC(C)O,propan-2-ol,AALcwx,CCCCCC[n+]1ccn(C)c1,F[B-](F)(F)F,2,,,,367,False,CCCCCC[n+]1ccn(C)c1.F[B-](F)(F)F,No changes
ksQVB,293.15,101.0,1033.53,Kermanpour (2012),Liquid,0.4155,1-hexyl-3-methylimidazolium tetrafluoroborate,,,CCCCCC[n+]1ccn(C)c1.F[B-](F)(F)F,1-hexyl-3-methylimidazolium tetrafluoroborate,AAwscj,CC(C)O,propan-2-ol,AALcwx,CCCCCC[n+]1ccn(C)c1,F[B-](F)(F)F,2,,,,368,False,CCCCCC[n+]1ccn(C)c1.F[B-](F)(F)F,No changes
ksQVB,293.15,101.0,1060.49,Kermanpour (2012),Liquid,0.5058,1-hexyl-3-methylimidazolium tetrafluoroborate,,,CCCCCC[n+]1ccn(C)c1.F[B-](F)(F)F,1-hexyl-3-methylimidazolium tetrafluoroborate,AAwscj,CC(C)O,propan-2-ol,AALcwx,CCCCCC[n+]1ccn(C)c1,F[B-](F)(F)F,2,,,,369,False,CCCCCC[n+]1ccn(C)c1.F[B-](F)(F)F,No changes
ksQVB,293.15,101.0,1089.48,Kermanpour (2012),Liquid,0.6248,1-hexyl-3-methylimidazolium tetrafluoroborate,,,CCCCCC[n+]1ccn(C)c1.F[B-](F)(F)F,1-hexyl-3-methylimidazolium tetrafluoroborate,AAwscj,CC(C)O,propan-2-ol,AALcwx,CCCCCC[n+]1ccn(C)c1,F[B-](F)(F)F,2,,,,370,False,CCCCCC[n+]1ccn(C)c1.F[B-](F)(F)F,No changes
ksQVB,293.15,101.0,1104.9,Kermanpour (2012),Liquid,0.7009,1-hexyl-3-methylimidazolium tetrafluoroborate,,,CCCCCC[n+]1ccn(C)c1.F[B-](F)(F)F,1-hexyl-3-methylimidazolium tetrafluoroborate,AAwscj,CC(C)O,propan-2-ol,AALcwx,CCCCCC[n+]1ccn(C)c1,F[B-](F)(F)F,2,,,,371,False,CCCCCC[n+]1ccn(C)c1.F[B-](F)(F)F,No changes
ksQVB,293.15,101.0,1117.46,Kermanpour (2012),Liquid,0.7711,1-hexyl-3-methylimidazolium tetrafluoroborate,,,CCCCCC[n+]1ccn(C)c1.F[B-](F)(F)F,1-hexyl-3-methylimidazolium tetrafluoroborate,AAwscj,CC(C)O,propan-2-ol,AALcwx,CCCCCC[n+]1ccn(C)c1,F[B-](F)(F)F,2,,,,372,False,CCCCCC[n+]1ccn(C)c1.F[B-](F)(F)F,No changes
ksQVB,293.15,101.0,1129.8,Kermanpour (2012),Liquid,0.8507,1-hexyl-3-methylimidazolium tetrafluoroborate,,,CCCCCC[n+]1ccn(C)c1.F[B-](F)(F)F,1-hexyl-3-methylimidazolium tetrafluoroborate,AAwscj,CC(C)O,propan-2-ol,AALcwx,CCCCCC[n+]1ccn(C)c1,F[B-](F)(F)F,2,,,,373,False,CCCCCC[n+]1ccn(C)c1.F[B-](F)(F)F,No changes
ksQVB,293.15,101.0,1149.24,Kermanpour (2012),Liquid,1.0,1-hexyl-3-methylimidazolium tetrafluoroborate,,,CCCCCC[n+]1ccn(C)c1.F[B-](F)(F)F,1-hexyl-3-methylimidazolium tetrafluoroborate,AAwscj,CC(C)O,propan-2-ol,AALcwx,CCCCCC[n+]1ccn(C)c1,F[B-](F)(F)F,2,,,,374,False,CCCCCC[n+]1ccn(C)c1.F[B-](F)(F)F,No changes
ksQVB,303.15,101.0,776.78,Kermanpour (2012),Liquid,0.0,1-hexyl-3-methylimidazolium tetrafluoroborate,,,CCCCCC[n+]1ccn(C)c1.F[B-](F)(F)F,1-hexyl-3-methylimidazolium tetrafluoroborate,AAwscj,CC(C)O,propan-2-ol,AALcwx,CCCCCC[n+]1ccn(C)c1,F[B-](F)(F)F,2,,,,375,False,CCCCCC[n+]1ccn(C)c1.F[B-](F)(F)F,No changes
ksQVB,303.15,101.0,854.73,Kermanpour (2012),Liquid,0.0835,1-hexyl-3-methylimidazolium tetrafluoroborate,,,CCCCCC[n+]1ccn(C)c1.F[B-](F)(F)F,1-hexyl-3-methylimidazolium tetrafluoroborate,AAwscj,CC(C)O,propan-2-ol,AALcwx,CCCCCC[n+]1ccn(C)c1,F[B-](F)(F)F,2,,,,376,False,CCCCCC[n+]1ccn(C)c1.F[B-](F)(F)F,No changes
ksQVB,303.15,101.0,953.58,Kermanpour (2012),Liquid,0.238,1-hexyl-3-methylimidazolium tetrafluoroborate,,,CCCCCC[n+]1ccn(C)c1.F[B-](F)(F)F,1-hexyl-3-methylimidazolium tetrafluoroborate,AAwscj,CC(C)O,propan-2-ol,AALcwx,CCCCCC[n+]1ccn(C)c1,F[B-](F)(F)F,2,,,,377,False,CCCCCC[n+]1ccn(C)c1.F[B-](F)(F)F,No changes
ksQVB,303.15,101.0,979.48,Kermanpour (2012),Liquid,0.2933,1-hexyl-3-methylimidazolium tetrafluoroborate,,,CCCCCC[n+]1ccn(C)c1.F[B-](F)(F)F,1-hexyl-3-methylimidazolium tetrafluoroborate,AAwscj,CC(C)O,propan-2-ol,AALcwx,CCCCCC[n+]1ccn(C)c1,F[B-](F)(F)F,2,,,,378,False,CCCCCC[n+]1ccn(C)c1.F[B-](F)(F)F,No changes
ksQVB,303.15,101.0,1026.06,Kermanpour (2012),Liquid,0.4155,1-hexyl-3-methylimidazolium tetrafluoroborate,,,CCCCCC[n+]1ccn(C)c1.F[B-](F)(F)F,1-hexyl-3-methylimidazolium tetrafluoroborate,AAwscj,CC(C)O,propan-2-ol,AALcwx,CCCCCC[n+]1ccn(C)c1,F[B-](F)(F)F,2,,,,379,False,CCCCCC[n+]1ccn(C)c1.F[B-](F)(F)F,No changes
ksQVB,303.15,101.0,1053.19,Kermanpour (2012),Liquid,0.5058,1-hexyl-3-methylimidazolium tetrafluoroborate,,,CCCCCC[n+]1ccn(C)c1.F[B-](F)(F)F,1-hexyl-3-methylimidazolium tetrafluoroborate,AAwscj,CC(C)O,propan-2-ol,AALcwx,CCCCCC[n+]1ccn(C)c1,F[B-](F)(F)F,2,,,,380,False,CCCCCC[n+]1ccn(C)c1.F[B-](F)(F)F,No changes
ksQVB,303.15,101.0,1082.34,Kermanpour (2012),Liquid,0.6248,1-hexyl-3-methylimidazolium tetrafluoroborate,,,CCCCCC[n+]1ccn(C)c1.F[B-](F)(F)F,1-hexyl-3-methylimidazolium tetrafluoroborate,AAwscj,CC(C)O,propan-2-ol,AALcwx,CCCCCC[n+]1ccn(C)c1,F[B-](F)(F)F,2,,,,381,False,CCCCCC[n+]1ccn(C)c1.F[B-](F)(F)F,No changes
ksQVB,303.15,101.0,1097.9,Kermanpour (2012),Liquid,0.7009,1-hexyl-3-methylimidazolium tetrafluoroborate,,,CCCCCC[n+]1ccn(C)c1.F[B-](F)(F)F,1-hexyl-3-methylimidazolium tetrafluoroborate,AAwscj,CC(C)O,propan-2-ol,AALcwx,CCCCCC[n+]1ccn(C)c1,F[B-](F)(F)F,2,,,,382,False,CCCCCC[n+]1ccn(C)c1.F[B-](F)(F)F,No changes
ksQVB,303.15,101.0,1110.56,Kermanpour (2012),Liquid,0.7711,1-hexyl-3-methylimidazolium tetrafluoroborate,,,CCCCCC[n+]1ccn(C)c1.F[B-](F)(F)F,1-hexyl-3-methylimidazolium tetrafluoroborate,AAwscj,CC(C)O,propan-2-ol,AALcwx,CCCCCC[n+]1ccn(C)c1,F[B-](F)(F)F,2,,,,383,False,CCCCCC[n+]1ccn(C)c1.F[B-](F)(F)F,No changes
ksQVB,303.15,101.0,1122.97,Kermanpour (2012),Liquid,0.8507,1-hexyl-3-methylimidazolium tetrafluoroborate,,,CCCCCC[n+]1ccn(C)c1.F[B-](F)(F)F,1-hexyl-3-methylimidazolium tetrafluoroborate,AAwscj,CC(C)O,propan-2-ol,AALcwx,CCCCCC[n+]1ccn(C)c1,F[B-](F)(F)F,2,,,,384,False,CCCCCC[n+]1ccn(C)c1.F[B-](F)(F)F,No changes
ksQVB,303.15,101.0,1142.48,Kermanpour (2012),Liquid,1.0,1-hexyl-3-methylimidazolium tetrafluoroborate,,,CCCCCC[n+]1ccn(C)c1.F[B-](F)(F)F,1-hexyl-3-methylimidazolium tetrafluoroborate,AAwscj,CC(C)O,propan-2-ol,AALcwx,CCCCCC[n+]1ccn(C)c1,F[B-](F)(F)F,2,,,,385,False,CCCCCC[n+]1ccn(C)c1.F[B-](F)(F)F,No changes
ksQVB,313.15,101.0,768.0,Kermanpour (2012),Liquid,0.0,1-hexyl-3-methylimidazolium tetrafluoroborate,,,CCCCCC[n+]1ccn(C)c1.F[B-](F)(F)F,1-hexyl-3-methylimidazolium tetrafluoroborate,AAwscj,CC(C)O,propan-2-ol,AALcwx,CCCCCC[n+]1ccn(C)c1,F[B-](F)(F)F,2,,,,386,False,CCCCCC[n+]1ccn(C)c1.F[B-](F)(F)F,No changes
ksQVB,313.15,101.0,846.46,Kermanpour (2012),Liquid,0.0835,1-hexyl-3-methylimidazolium tetrafluoroborate,,,CCCCCC[n+]1ccn(C)c1.F[B-](F)(F)F,1-hexyl-3-methylimidazolium tetrafluoroborate,AAwscj,CC(C)O,propan-2-ol,AALcwx,CCCCCC[n+]1ccn(C)c1,F[B-](F)(F)F,2,,,,387,False,CCCCCC[n+]1ccn(C)c1.F[B-](F)(F)F,No changes
ksQVB,313.15,101.0,945.8,Kermanpour (2012),Liquid,0.238,1-hexyl-3-methylimidazolium tetrafluoroborate,,,CCCCCC[n+]1ccn(C)c1.F[B-](F)(F)F,1-hexyl-3-methylimidazolium tetrafluoroborate,AAwscj,CC(C)O,propan-2-ol,AALcwx,CCCCCC[n+]1ccn(C)c1,F[B-](F)(F)F,2,,,,388,False,CCCCCC[n+]1ccn(C)c1.F[B-](F)(F)F,No changes
ksQVB,313.15,101.0,971.81,Kermanpour (2012),Liquid,0.2933,1-hexyl-3-methylimidazolium tetrafluoroborate,,,CCCCCC[n+]1ccn(C)c1.F[B-](F)(F)F,1-hexyl-3-methylimidazolium tetrafluoroborate,AAwscj,CC(C)O,propan-2-ol,AALcwx,CCCCCC[n+]1ccn(C)c1,F[B-](F)(F)F,2,,,,389,False,CCCCCC[n+]1ccn(C)c1.F[B-](F)(F)F,No changes
ksQVB,313.15,101.0,1018.69,Kermanpour (2012),Liquid,0.4155,1-hexyl-3-methylimidazolium tetrafluoroborate,,,CCCCCC[n+]1ccn(C)c1.F[B-](F)(F)F,1-hexyl-3-methylimidazolium tetrafluoroborate,AAwscj,CC(C)O,propan-2-ol,AALcwx,CCCCCC[n+]1ccn(C)c1,F[B-](F)(F)F,2,,,,390,False,CCCCCC[n+]1ccn(C)c1.F[B-](F)(F)F,No changes
ksQVB,313.15,101.0,1045.99,Kermanpour (2012),Liquid,0.5058,1-hexyl-3-methylimidazolium tetrafluoroborate,,,CCCCCC[n+]1ccn(C)c1.F[B-](F)(F)F,1-hexyl-3-methylimidazolium tetrafluoroborate,AAwscj,CC(C)O,propan-2-ol,AALcwx,CCCCCC[n+]1ccn(C)c1,F[B-](F)(F)F,2,,,,391,False,CCCCCC[n+]1ccn(C)c1.F[B-](F)(F)F,No changes
ksQVB,313.15,101.0,1075.27,Kermanpour (2012),Liquid,0.6248,1-hexyl-3-methylimidazolium tetrafluoroborate,,,CCCCCC[n+]1ccn(C)c1.F[B-](F)(F)F,1-hexyl-3-methylimidazolium tetrafluoroborate,AAwscj,CC(C)O,propan-2-ol,AALcwx,CCCCCC[n+]1ccn(C)c1,F[B-](F)(F)F,2,,,,392,False,CCCCCC[n+]1ccn(C)c1.F[B-](F)(F)F,No changes
ksQVB,313.15,101.0,1090.88,Kermanpour (2012),Liquid,0.7009,1-hexyl-3-methylimidazolium tetrafluoroborate,,,CCCCCC[n+]1ccn(C)c1.F[B-](F)(F)F,1-hexyl-3-methylimidazolium tetrafluoroborate,AAwscj,CC(C)O,propan-2-ol,AALcwx,CCCCCC[n+]1ccn(C)c1,F[B-](F)(F)F,2,,,,393,False,CCCCCC[n+]1ccn(C)c1.F[B-](F)(F)F,No changes
ksQVB,313.15,101.0,1103.62,Kermanpour (2012),Liquid,0.7711,1-hexyl-3-methylimidazolium tetrafluoroborate,,,CCCCCC[n+]1ccn(C)c1.F[B-](F)(F)F,1-hexyl-3-methylimidazolium tetrafluoroborate,AAwscj,CC(C)O,propan-2-ol,AALcwx,CCCCCC[n+]1ccn(C)c1,F[B-](F)(F)F,2,,,,394,False,CCCCCC[n+]1ccn(C)c1.F[B-](F)(F)F,No changes
ksQVB,313.15,101.0,1116.12,Kermanpour (2012),Liquid,0.8507,1-hexyl-3-methylimidazolium tetrafluoroborate,,,CCCCCC[n+]1ccn(C)c1.F[B-](F)(F)F,1-hexyl-3-methylimidazolium tetrafluoroborate,AAwscj,CC(C)O,propan-2-ol,AALcwx,CCCCCC[n+]1ccn(C)c1,F[B-](F)(F)F,2,,,,395,False,CCCCCC[n+]1ccn(C)c1.F[B-](F)(F)F,No changes
ksQVB,313.15,101.0,1135.79,Kermanpour (2012),Liquid,1.0,1-hexyl-3-methylimidazolium tetrafluoroborate,,,CCCCCC[n+]1ccn(C)c1.F[B-](F)(F)F,1-hexyl-3-methylimidazolium tetrafluoroborate,AAwscj,CC(C)O,propan-2-ol,AALcwx,CCCCCC[n+]1ccn(C)c1,F[B-](F)(F)F,2,,,,396,False,CCCCCC[n+]1ccn(C)c1.F[B-](F)(F)F,No changes
ksQVB,323.15,101.0,758.8,Kermanpour (2012),Liquid,0.0,1-hexyl-3-methylimidazolium tetrafluoroborate,,,CCCCCC[n+]1ccn(C)c1.F[B-](F)(F)F,1-hexyl-3-methylimidazolium tetrafluoroborate,AAwscj,CC(C)O,propan-2-ol,AALcwx,CCCCCC[n+]1ccn(C)c1,F[B-](F)(F)F,2,,,,397,False,CCCCCC[n+]1ccn(C)c1.F[B-](F)(F)F,No changes