setid,Temperature (K),Pressure (kPa),Density (kg/m3),reference,phases,Mole fraction,Mole fraction of compound name,Weight fraction,Weight fraction of compound name,IL_SMILES,IL_name,IL_ID,Solvent_SMILES,Solvent_name,Solvent_ID,IL_cation_SMILES,IL_anion_SMILES,IL_component_number,Mole fraction of solvent,IL_MW,Solvent_MW,Record_ID,Contains_Metal,Standardized_IL_SMILES,Changes
ZbjrT,298.15,101.0,1031.53,Arce et al. (2006b),Liquid,0.5028,1-methyl-3-octylimidazolium tetrafluoroborate,,,CCCCCCCCn1cc[n+](C)c1.F[B-](F)(F)F,1-methyl-3-octylimidazolium tetrafluoroborate,ABCNhW,CC(C)O,propan-2-ol,AALcwx,CCCCCCCCn1cc[n+](C)c1,F[B-](F)(F)F,2,,,,532,False,CCCCCCCCn1cc[n+](C)c1.F[B-](F)(F)F,No changes
ZbjrT,298.15,101.0,1054.39,Arce et al. (2006b),Liquid,0.6166,1-methyl-3-octylimidazolium tetrafluoroborate,,,CCCCCCCCn1cc[n+](C)c1.F[B-](F)(F)F,1-methyl-3-octylimidazolium tetrafluoroborate,ABCNhW,CC(C)O,propan-2-ol,AALcwx,CCCCCCCCn1cc[n+](C)c1,F[B-](F)(F)F,2,,,,533,False,CCCCCCCCn1cc[n+](C)c1.F[B-](F)(F)F,No changes
ZbjrT,298.15,101.0,1069.7,Arce et al. (2006b),Liquid,0.7089,1-methyl-3-octylimidazolium tetrafluoroborate,,,CCCCCCCCn1cc[n+](C)c1.F[B-](F)(F)F,1-methyl-3-octylimidazolium tetrafluoroborate,ABCNhW,CC(C)O,propan-2-ol,AALcwx,CCCCCCCCn1cc[n+](C)c1,F[B-](F)(F)F,2,,,,534,False,CCCCCCCCn1cc[n+](C)c1.F[B-](F)(F)F,No changes
ZbjrT,298.15,101.0,1076.59,Arce et al. (2006b),Liquid,0.7558,1-methyl-3-octylimidazolium tetrafluoroborate,,,CCCCCCCCn1cc[n+](C)c1.F[B-](F)(F)F,1-methyl-3-octylimidazolium tetrafluoroborate,ABCNhW,CC(C)O,propan-2-ol,AALcwx,CCCCCCCCn1cc[n+](C)c1,F[B-](F)(F)F,2,,,,535,False,CCCCCCCCn1cc[n+](C)c1.F[B-](F)(F)F,No changes
ZbjrT,298.15,101.0,1091.33,Arce et al. (2006b),Liquid,0.8697,1-methyl-3-octylimidazolium tetrafluoroborate,,,CCCCCCCCn1cc[n+](C)c1.F[B-](F)(F)F,1-methyl-3-octylimidazolium tetrafluoroborate,ABCNhW,CC(C)O,propan-2-ol,AALcwx,CCCCCCCCn1cc[n+](C)c1,F[B-](F)(F)F,2,,,,536,False,CCCCCCCCn1cc[n+](C)c1.F[B-](F)(F)F,No changes
xTuRO,288.15,100.0,789.3,Wei et al. (2020a),Liquid,0.0,1-ethyl-3-(2-methoxyethyl)imidazolium thiocyanate,,,CC[n+]1ccn(CCOC)c1.N#C[S-],1-ethyl-3-(2-methoxyethyl)imidazolium thiocyanate,AApAEZ,CC(C)O,propan-2-ol,AALcwx,CC[n+]1ccn(CCOC)c1,N#C[S-],2,,,,537,False,CC[n+]1ccn(CCOC)c1.N#C[S-],No changes
xTuRO,288.15,100.0,869.6,Wei et al. (2020a),Liquid,0.1,1-ethyl-3-(2-methoxyethyl)imidazolium thiocyanate,,,CC[n+]1ccn(CCOC)c1.N#C[S-],1-ethyl-3-(2-methoxyethyl)imidazolium thiocyanate,AApAEZ,CC(C)O,propan-2-ol,AALcwx,CC[n+]1ccn(CCOC)c1,N#C[S-],2,,,,538,False,CC[n+]1ccn(CCOC)c1.N#C[S-],No changes
xTuRO,288.15,100.0,930.3,Wei et al. (2020a),Liquid,0.1998,1-ethyl-3-(2-methoxyethyl)imidazolium thiocyanate,,,CC[n+]1ccn(CCOC)c1.N#C[S-],1-ethyl-3-(2-methoxyethyl)imidazolium thiocyanate,AApAEZ,CC(C)O,propan-2-ol,AALcwx,CC[n+]1ccn(CCOC)c1,N#C[S-],2,,,,539,False,CC[n+]1ccn(CCOC)c1.N#C[S-],No changes
xTuRO,288.15,100.0,986.4,Wei et al. (2020a),Liquid,0.3234,1-ethyl-3-(2-methoxyethyl)imidazolium thiocyanate,,,CC[n+]1ccn(CCOC)c1.N#C[S-],1-ethyl-3-(2-methoxyethyl)imidazolium thiocyanate,AApAEZ,CC(C)O,propan-2-ol,AALcwx,CC[n+]1ccn(CCOC)c1,N#C[S-],2,,,,540,False,CC[n+]1ccn(CCOC)c1.N#C[S-],No changes
xTuRO,288.15,100.0,1014.3,Wei et al. (2020a),Liquid,0.3998,1-ethyl-3-(2-methoxyethyl)imidazolium thiocyanate,,,CC[n+]1ccn(CCOC)c1.N#C[S-],1-ethyl-3-(2-methoxyethyl)imidazolium thiocyanate,AApAEZ,CC(C)O,propan-2-ol,AALcwx,CC[n+]1ccn(CCOC)c1,N#C[S-],2,,,,541,False,CC[n+]1ccn(CCOC)c1.N#C[S-],No changes
xTuRO,288.15,100.0,1045.3,Wei et al. (2020a),Liquid,0.5003,1-ethyl-3-(2-methoxyethyl)imidazolium thiocyanate,,,CC[n+]1ccn(CCOC)c1.N#C[S-],1-ethyl-3-(2-methoxyethyl)imidazolium thiocyanate,AApAEZ,CC(C)O,propan-2-ol,AALcwx,CC[n+]1ccn(CCOC)c1,N#C[S-],2,,,,542,False,CC[n+]1ccn(CCOC)c1.N#C[S-],No changes
xTuRO,288.15,100.0,1071.1,Wei et al. (2020a),Liquid,0.6,1-ethyl-3-(2-methoxyethyl)imidazolium thiocyanate,,,CC[n+]1ccn(CCOC)c1.N#C[S-],1-ethyl-3-(2-methoxyethyl)imidazolium thiocyanate,AApAEZ,CC(C)O,propan-2-ol,AALcwx,CC[n+]1ccn(CCOC)c1,N#C[S-],2,,,,543,False,CC[n+]1ccn(CCOC)c1.N#C[S-],No changes
xTuRO,288.15,100.0,1091.7,Wei et al. (2020a),Liquid,0.697,1-ethyl-3-(2-methoxyethyl)imidazolium thiocyanate,,,CC[n+]1ccn(CCOC)c1.N#C[S-],1-ethyl-3-(2-methoxyethyl)imidazolium thiocyanate,AApAEZ,CC(C)O,propan-2-ol,AALcwx,CC[n+]1ccn(CCOC)c1,N#C[S-],2,,,,544,False,CC[n+]1ccn(CCOC)c1.N#C[S-],No changes
xTuRO,288.15,100.0,1110.1,Wei et al. (2020a),Liquid,0.8002,1-ethyl-3-(2-methoxyethyl)imidazolium thiocyanate,,,CC[n+]1ccn(CCOC)c1.N#C[S-],1-ethyl-3-(2-methoxyethyl)imidazolium thiocyanate,AApAEZ,CC(C)O,propan-2-ol,AALcwx,CC[n+]1ccn(CCOC)c1,N#C[S-],2,,,,545,False,CC[n+]1ccn(CCOC)c1.N#C[S-],No changes
xTuRO,288.15,100.0,1125.2,Wei et al. (2020a),Liquid,0.8991,1-ethyl-3-(2-methoxyethyl)imidazolium thiocyanate,,,CC[n+]1ccn(CCOC)c1.N#C[S-],1-ethyl-3-(2-methoxyethyl)imidazolium thiocyanate,AApAEZ,CC(C)O,propan-2-ol,AALcwx,CC[n+]1ccn(CCOC)c1,N#C[S-],2,,,,546,False,CC[n+]1ccn(CCOC)c1.N#C[S-],No changes
xTuRO,288.15,100.0,1139.5,Wei et al. (2020a),Liquid,1.0,1-ethyl-3-(2-methoxyethyl)imidazolium thiocyanate,,,CC[n+]1ccn(CCOC)c1.N#C[S-],1-ethyl-3-(2-methoxyethyl)imidazolium thiocyanate,AApAEZ,CC(C)O,propan-2-ol,AALcwx,CC[n+]1ccn(CCOC)c1,N#C[S-],2,,,,547,False,CC[n+]1ccn(CCOC)c1.N#C[S-],No changes
xTuRO,293.15,100.0,785.1,Wei et al. (2020a),Liquid,0.0,1-ethyl-3-(2-methoxyethyl)imidazolium thiocyanate,,,CC[n+]1ccn(CCOC)c1.N#C[S-],1-ethyl-3-(2-methoxyethyl)imidazolium thiocyanate,AApAEZ,CC(C)O,propan-2-ol,AALcwx,CC[n+]1ccn(CCOC)c1,N#C[S-],2,,,,548,False,CC[n+]1ccn(CCOC)c1.N#C[S-],No changes
xTuRO,293.15,100.0,865.8,Wei et al. (2020a),Liquid,0.1,1-ethyl-3-(2-methoxyethyl)imidazolium thiocyanate,,,CC[n+]1ccn(CCOC)c1.N#C[S-],1-ethyl-3-(2-methoxyethyl)imidazolium thiocyanate,AApAEZ,CC(C)O,propan-2-ol,AALcwx,CC[n+]1ccn(CCOC)c1,N#C[S-],2,,,,549,False,CC[n+]1ccn(CCOC)c1.N#C[S-],No changes
xTuRO,293.15,100.0,926.6,Wei et al. (2020a),Liquid,0.1998,1-ethyl-3-(2-methoxyethyl)imidazolium thiocyanate,,,CC[n+]1ccn(CCOC)c1.N#C[S-],1-ethyl-3-(2-methoxyethyl)imidazolium thiocyanate,AApAEZ,CC(C)O,propan-2-ol,AALcwx,CC[n+]1ccn(CCOC)c1,N#C[S-],2,,,,550,False,CC[n+]1ccn(CCOC)c1.N#C[S-],No changes
xTuRO,293.15,100.0,982.9,Wei et al. (2020a),Liquid,0.3234,1-ethyl-3-(2-methoxyethyl)imidazolium thiocyanate,,,CC[n+]1ccn(CCOC)c1.N#C[S-],1-ethyl-3-(2-methoxyethyl)imidazolium thiocyanate,AApAEZ,CC(C)O,propan-2-ol,AALcwx,CC[n+]1ccn(CCOC)c1,N#C[S-],2,,,,551,False,CC[n+]1ccn(CCOC)c1.N#C[S-],No changes
xTuRO,293.15,100.0,1010.8,Wei et al. (2020a),Liquid,0.3998,1-ethyl-3-(2-methoxyethyl)imidazolium thiocyanate,,,CC[n+]1ccn(CCOC)c1.N#C[S-],1-ethyl-3-(2-methoxyethyl)imidazolium thiocyanate,AApAEZ,CC(C)O,propan-2-ol,AALcwx,CC[n+]1ccn(CCOC)c1,N#C[S-],2,,,,552,False,CC[n+]1ccn(CCOC)c1.N#C[S-],No changes
xTuRO,293.15,100.0,1041.9,Wei et al. (2020a),Liquid,0.5003,1-ethyl-3-(2-methoxyethyl)imidazolium thiocyanate,,,CC[n+]1ccn(CCOC)c1.N#C[S-],1-ethyl-3-(2-methoxyethyl)imidazolium thiocyanate,AApAEZ,CC(C)O,propan-2-ol,AALcwx,CC[n+]1ccn(CCOC)c1,N#C[S-],2,,,,553,False,CC[n+]1ccn(CCOC)c1.N#C[S-],No changes
xTuRO,293.15,100.0,1067.7,Wei et al. (2020a),Liquid,0.6,1-ethyl-3-(2-methoxyethyl)imidazolium thiocyanate,,,CC[n+]1ccn(CCOC)c1.N#C[S-],1-ethyl-3-(2-methoxyethyl)imidazolium thiocyanate,AApAEZ,CC(C)O,propan-2-ol,AALcwx,CC[n+]1ccn(CCOC)c1,N#C[S-],2,,,,554,False,CC[n+]1ccn(CCOC)c1.N#C[S-],No changes
xTuRO,293.15,100.0,1088.3,Wei et al. (2020a),Liquid,0.697,1-ethyl-3-(2-methoxyethyl)imidazolium thiocyanate,,,CC[n+]1ccn(CCOC)c1.N#C[S-],1-ethyl-3-(2-methoxyethyl)imidazolium thiocyanate,AApAEZ,CC(C)O,propan-2-ol,AALcwx,CC[n+]1ccn(CCOC)c1,N#C[S-],2,,,,555,False,CC[n+]1ccn(CCOC)c1.N#C[S-],No changes
xTuRO,293.15,100.0,1106.8,Wei et al. (2020a),Liquid,0.8002,1-ethyl-3-(2-methoxyethyl)imidazolium thiocyanate,,,CC[n+]1ccn(CCOC)c1.N#C[S-],1-ethyl-3-(2-methoxyethyl)imidazolium thiocyanate,AApAEZ,CC(C)O,propan-2-ol,AALcwx,CC[n+]1ccn(CCOC)c1,N#C[S-],2,,,,556,False,CC[n+]1ccn(CCOC)c1.N#C[S-],No changes
xTuRO,293.15,100.0,1122.0,Wei et al. (2020a),Liquid,0.8991,1-ethyl-3-(2-methoxyethyl)imidazolium thiocyanate,,,CC[n+]1ccn(CCOC)c1.N#C[S-],1-ethyl-3-(2-methoxyethyl)imidazolium thiocyanate,AApAEZ,CC(C)O,propan-2-ol,AALcwx,CC[n+]1ccn(CCOC)c1,N#C[S-],2,,,,557,False,CC[n+]1ccn(CCOC)c1.N#C[S-],No changes
xTuRO,293.15,100.0,1136.2,Wei et al. (2020a),Liquid,1.0,1-ethyl-3-(2-methoxyethyl)imidazolium thiocyanate,,,CC[n+]1ccn(CCOC)c1.N#C[S-],1-ethyl-3-(2-methoxyethyl)imidazolium thiocyanate,AApAEZ,CC(C)O,propan-2-ol,AALcwx,CC[n+]1ccn(CCOC)c1,N#C[S-],2,,,,558,False,CC[n+]1ccn(CCOC)c1.N#C[S-],No changes
xTuRO,298.15,100.0,780.9,Wei et al. (2020a),Liquid,0.0,1-ethyl-3-(2-methoxyethyl)imidazolium thiocyanate,,,CC[n+]1ccn(CCOC)c1.N#C[S-],1-ethyl-3-(2-methoxyethyl)imidazolium thiocyanate,AApAEZ,CC(C)O,propan-2-ol,AALcwx,CC[n+]1ccn(CCOC)c1,N#C[S-],2,,,,559,False,CC[n+]1ccn(CCOC)c1.N#C[S-],No changes
xTuRO,298.15,100.0,861.9,Wei et al. (2020a),Liquid,0.1,1-ethyl-3-(2-methoxyethyl)imidazolium thiocyanate,,,CC[n+]1ccn(CCOC)c1.N#C[S-],1-ethyl-3-(2-methoxyethyl)imidazolium thiocyanate,AApAEZ,CC(C)O,propan-2-ol,AALcwx,CC[n+]1ccn(CCOC)c1,N#C[S-],2,,,,560,False,CC[n+]1ccn(CCOC)c1.N#C[S-],No changes
xTuRO,298.15,100.0,922.9,Wei et al. (2020a),Liquid,0.1998,1-ethyl-3-(2-methoxyethyl)imidazolium thiocyanate,,,CC[n+]1ccn(CCOC)c1.N#C[S-],1-ethyl-3-(2-methoxyethyl)imidazolium thiocyanate,AApAEZ,CC(C)O,propan-2-ol,AALcwx,CC[n+]1ccn(CCOC)c1,N#C[S-],2,,,,561,False,CC[n+]1ccn(CCOC)c1.N#C[S-],No changes
xTuRO,298.15,100.0,979.3,Wei et al. (2020a),Liquid,0.3234,1-ethyl-3-(2-methoxyethyl)imidazolium thiocyanate,,,CC[n+]1ccn(CCOC)c1.N#C[S-],1-ethyl-3-(2-methoxyethyl)imidazolium thiocyanate,AApAEZ,CC(C)O,propan-2-ol,AALcwx,CC[n+]1ccn(CCOC)c1,N#C[S-],2,,,,562,False,CC[n+]1ccn(CCOC)c1.N#C[S-],No changes
xTuRO,298.15,100.0,1007.3,Wei et al. (2020a),Liquid,0.3998,1-ethyl-3-(2-methoxyethyl)imidazolium thiocyanate,,,CC[n+]1ccn(CCOC)c1.N#C[S-],1-ethyl-3-(2-methoxyethyl)imidazolium thiocyanate,AApAEZ,CC(C)O,propan-2-ol,AALcwx,CC[n+]1ccn(CCOC)c1,N#C[S-],2,,,,563,False,CC[n+]1ccn(CCOC)c1.N#C[S-],No changes
xTuRO,298.15,100.0,1038.5,Wei et al. (2020a),Liquid,0.5003,1-ethyl-3-(2-methoxyethyl)imidazolium thiocyanate,,,CC[n+]1ccn(CCOC)c1.N#C[S-],1-ethyl-3-(2-methoxyethyl)imidazolium thiocyanate,AApAEZ,CC(C)O,propan-2-ol,AALcwx,CC[n+]1ccn(CCOC)c1,N#C[S-],2,,,,564,False,CC[n+]1ccn(CCOC)c1.N#C[S-],No changes
xTuRO,298.15,100.0,1064.4,Wei et al. (2020a),Liquid,0.6,1-ethyl-3-(2-methoxyethyl)imidazolium thiocyanate,,,CC[n+]1ccn(CCOC)c1.N#C[S-],1-ethyl-3-(2-methoxyethyl)imidazolium thiocyanate,AApAEZ,CC(C)O,propan-2-ol,AALcwx,CC[n+]1ccn(CCOC)c1,N#C[S-],2,,,,565,False,CC[n+]1ccn(CCOC)c1.N#C[S-],No changes
xTuRO,298.15,100.0,1085.0,Wei et al. (2020a),Liquid,0.697,1-ethyl-3-(2-methoxyethyl)imidazolium thiocyanate,,,CC[n+]1ccn(CCOC)c1.N#C[S-],1-ethyl-3-(2-methoxyethyl)imidazolium thiocyanate,AApAEZ,CC(C)O,propan-2-ol,AALcwx,CC[n+]1ccn(CCOC)c1,N#C[S-],2,,,,566,False,CC[n+]1ccn(CCOC)c1.N#C[S-],No changes
xTuRO,298.15,100.0,1103.5,Wei et al. (2020a),Liquid,0.8002,1-ethyl-3-(2-methoxyethyl)imidazolium thiocyanate,,,CC[n+]1ccn(CCOC)c1.N#C[S-],1-ethyl-3-(2-methoxyethyl)imidazolium thiocyanate,AApAEZ,CC(C)O,propan-2-ol,AALcwx,CC[n+]1ccn(CCOC)c1,N#C[S-],2,,,,567,False,CC[n+]1ccn(CCOC)c1.N#C[S-],No changes
xTuRO,298.15,100.0,1118.7,Wei et al. (2020a),Liquid,0.8991,1-ethyl-3-(2-methoxyethyl)imidazolium thiocyanate,,,CC[n+]1ccn(CCOC)c1.N#C[S-],1-ethyl-3-(2-methoxyethyl)imidazolium thiocyanate,AApAEZ,CC(C)O,propan-2-ol,AALcwx,CC[n+]1ccn(CCOC)c1,N#C[S-],2,,,,568,False,CC[n+]1ccn(CCOC)c1.N#C[S-],No changes
xTuRO,298.15,100.0,1133.0,Wei et al. (2020a),Liquid,1.0,1-ethyl-3-(2-methoxyethyl)imidazolium thiocyanate,,,CC[n+]1ccn(CCOC)c1.N#C[S-],1-ethyl-3-(2-methoxyethyl)imidazolium thiocyanate,AApAEZ,CC(C)O,propan-2-ol,AALcwx,CC[n+]1ccn(CCOC)c1,N#C[S-],2,,,,569,False,CC[n+]1ccn(CCOC)c1.N#C[S-],No changes
xTuRO,303.15,100.0,776.7,Wei et al. (2020a),Liquid,0.0,1-ethyl-3-(2-methoxyethyl)imidazolium thiocyanate,,,CC[n+]1ccn(CCOC)c1.N#C[S-],1-ethyl-3-(2-methoxyethyl)imidazolium thiocyanate,AApAEZ,CC(C)O,propan-2-ol,AALcwx,CC[n+]1ccn(CCOC)c1,N#C[S-],2,,,,570,False,CC[n+]1ccn(CCOC)c1.N#C[S-],No changes
xTuRO,303.15,100.0,858.0,Wei et al. (2020a),Liquid,0.1,1-ethyl-3-(2-methoxyethyl)imidazolium thiocyanate,,,CC[n+]1ccn(CCOC)c1.N#C[S-],1-ethyl-3-(2-methoxyethyl)imidazolium thiocyanate,AApAEZ,CC(C)O,propan-2-ol,AALcwx,CC[n+]1ccn(CCOC)c1,N#C[S-],2,,,,571,False,CC[n+]1ccn(CCOC)c1.N#C[S-],No changes
xTuRO,303.15,100.0,919.2,Wei et al. (2020a),Liquid,0.1998,1-ethyl-3-(2-methoxyethyl)imidazolium thiocyanate,,,CC[n+]1ccn(CCOC)c1.N#C[S-],1-ethyl-3-(2-methoxyethyl)imidazolium thiocyanate,AApAEZ,CC(C)O,propan-2-ol,AALcwx,CC[n+]1ccn(CCOC)c1,N#C[S-],2,,,,572,False,CC[n+]1ccn(CCOC)c1.N#C[S-],No changes
xTuRO,303.15,100.0,975.8,Wei et al. (2020a),Liquid,0.3234,1-ethyl-3-(2-methoxyethyl)imidazolium thiocyanate,,,CC[n+]1ccn(CCOC)c1.N#C[S-],1-ethyl-3-(2-methoxyethyl)imidazolium thiocyanate,AApAEZ,CC(C)O,propan-2-ol,AALcwx,CC[n+]1ccn(CCOC)c1,N#C[S-],2,,,,573,False,CC[n+]1ccn(CCOC)c1.N#C[S-],No changes
xTuRO,303.15,100.0,1003.8,Wei et al. (2020a),Liquid,0.3998,1-ethyl-3-(2-methoxyethyl)imidazolium thiocyanate,,,CC[n+]1ccn(CCOC)c1.N#C[S-],1-ethyl-3-(2-methoxyethyl)imidazolium thiocyanate,AApAEZ,CC(C)O,propan-2-ol,AALcwx,CC[n+]1ccn(CCOC)c1,N#C[S-],2,,,,574,False,CC[n+]1ccn(CCOC)c1.N#C[S-],No changes
xTuRO,303.15,100.0,1035.1,Wei et al. (2020a),Liquid,0.5003,1-ethyl-3-(2-methoxyethyl)imidazolium thiocyanate,,,CC[n+]1ccn(CCOC)c1.N#C[S-],1-ethyl-3-(2-methoxyethyl)imidazolium thiocyanate,AApAEZ,CC(C)O,propan-2-ol,AALcwx,CC[n+]1ccn(CCOC)c1,N#C[S-],2,,,,575,False,CC[n+]1ccn(CCOC)c1.N#C[S-],No changes
xTuRO,303.15,100.0,1057.7,Wei et al. (2020a),Liquid,0.6,1-ethyl-3-(2-methoxyethyl)imidazolium thiocyanate,,,CC[n+]1ccn(CCOC)c1.N#C[S-],1-ethyl-3-(2-methoxyethyl)imidazolium thiocyanate,AApAEZ,CC(C)O,propan-2-ol,AALcwx,CC[n+]1ccn(CCOC)c1,N#C[S-],2,,,,576,False,CC[n+]1ccn(CCOC)c1.N#C[S-],No changes
xTuRO,303.15,100.0,1081.7,Wei et al. (2020a),Liquid,0.697,1-ethyl-3-(2-methoxyethyl)imidazolium thiocyanate,,,CC[n+]1ccn(CCOC)c1.N#C[S-],1-ethyl-3-(2-methoxyethyl)imidazolium thiocyanate,AApAEZ,CC(C)O,propan-2-ol,AALcwx,CC[n+]1ccn(CCOC)c1,N#C[S-],2,,,,577,False,CC[n+]1ccn(CCOC)c1.N#C[S-],No changes
xTuRO,303.15,100.0,1100.2,Wei et al. (2020a),Liquid,0.8002,1-ethyl-3-(2-methoxyethyl)imidazolium thiocyanate,,,CC[n+]1ccn(CCOC)c1.N#C[S-],1-ethyl-3-(2-methoxyethyl)imidazolium thiocyanate,AApAEZ,CC(C)O,propan-2-ol,AALcwx,CC[n+]1ccn(CCOC)c1,N#C[S-],2,,,,578,False,CC[n+]1ccn(CCOC)c1.N#C[S-],No changes
xTuRO,303.15,100.0,1115.4,Wei et al. (2020a),Liquid,0.8991,1-ethyl-3-(2-methoxyethyl)imidazolium thiocyanate,,,CC[n+]1ccn(CCOC)c1.N#C[S-],1-ethyl-3-(2-methoxyethyl)imidazolium thiocyanate,AApAEZ,CC(C)O,propan-2-ol,AALcwx,CC[n+]1ccn(CCOC)c1,N#C[S-],2,,,,579,False,CC[n+]1ccn(CCOC)c1.N#C[S-],No changes
xTuRO,303.15,100.0,1129.7,Wei et al. (2020a),Liquid,1.0,1-ethyl-3-(2-methoxyethyl)imidazolium thiocyanate,,,CC[n+]1ccn(CCOC)c1.N#C[S-],1-ethyl-3-(2-methoxyethyl)imidazolium thiocyanate,AApAEZ,CC(C)O,propan-2-ol,AALcwx,CC[n+]1ccn(CCOC)c1,N#C[S-],2,,,,580,False,CC[n+]1ccn(CCOC)c1.N#C[S-],No changes
xTuRO,308.15,100.0,772.3,Wei et al. (2020a),Liquid,0.0,1-ethyl-3-(2-methoxyethyl)imidazolium thiocyanate,,,CC[n+]1ccn(CCOC)c1.N#C[S-],1-ethyl-3-(2-methoxyethyl)imidazolium thiocyanate,AApAEZ,CC(C)O,propan-2-ol,AALcwx,CC[n+]1ccn(CCOC)c1,N#C[S-],2,,,,581,False,CC[n+]1ccn(CCOC)c1.N#C[S-],No changes
xTuRO,308.15,100.0,854.0,Wei et al. (2020a),Liquid,0.1,1-ethyl-3-(2-methoxyethyl)imidazolium thiocyanate,,,CC[n+]1ccn(CCOC)c1.N#C[S-],1-ethyl-3-(2-methoxyethyl)imidazolium thiocyanate,AApAEZ,CC(C)O,propan-2-ol,AALcwx,CC[n+]1ccn(CCOC)c1,N#C[S-],2,,,,582,False,CC[n+]1ccn(CCOC)c1.N#C[S-],No changes
xTuRO,308.15,100.0,915.4,Wei et al. (2020a),Liquid,0.1998,1-ethyl-3-(2-methoxyethyl)imidazolium thiocyanate,,,CC[n+]1ccn(CCOC)c1.N#C[S-],1-ethyl-3-(2-methoxyethyl)imidazolium thiocyanate,AApAEZ,CC(C)O,propan-2-ol,AALcwx,CC[n+]1ccn(CCOC)c1,N#C[S-],2,,,,583,False,CC[n+]1ccn(CCOC)c1.N#C[S-],No changes
xTuRO,308.15,100.0,972.2,Wei et al. (2020a),Liquid,0.3234,1-ethyl-3-(2-methoxyethyl)imidazolium thiocyanate,,,CC[n+]1ccn(CCOC)c1.N#C[S-],1-ethyl-3-(2-methoxyethyl)imidazolium thiocyanate,AApAEZ,CC(C)O,propan-2-ol,AALcwx,CC[n+]1ccn(CCOC)c1,N#C[S-],2,,,,584,False,CC[n+]1ccn(CCOC)c1.N#C[S-],No changes
xTuRO,308.15,100.0,1000.3,Wei et al. (2020a),Liquid,0.3998,1-ethyl-3-(2-methoxyethyl)imidazolium thiocyanate,,,CC[n+]1ccn(CCOC)c1.N#C[S-],1-ethyl-3-(2-methoxyethyl)imidazolium thiocyanate,AApAEZ,CC(C)O,propan-2-ol,AALcwx,CC[n+]1ccn(CCOC)c1,N#C[S-],2,,,,585,False,CC[n+]1ccn(CCOC)c1.N#C[S-],No changes
xTuRO,308.15,100.0,1031.7,Wei et al. (2020a),Liquid,0.5003,1-ethyl-3-(2-methoxyethyl)imidazolium thiocyanate,,,CC[n+]1ccn(CCOC)c1.N#C[S-],1-ethyl-3-(2-methoxyethyl)imidazolium thiocyanate,AApAEZ,CC(C)O,propan-2-ol,AALcwx,CC[n+]1ccn(CCOC)c1,N#C[S-],2,,,,586,False,CC[n+]1ccn(CCOC)c1.N#C[S-],No changes
xTuRO,308.15,100.0,1055.3,Wei et al. (2020a),Liquid,0.6,1-ethyl-3-(2-methoxyethyl)imidazolium thiocyanate,,,CC[n+]1ccn(CCOC)c1.N#C[S-],1-ethyl-3-(2-methoxyethyl)imidazolium thiocyanate,AApAEZ,CC(C)O,propan-2-ol,AALcwx,CC[n+]1ccn(CCOC)c1,N#C[S-],2,,,,587,False,CC[n+]1ccn(CCOC)c1.N#C[S-],No changes
xTuRO,308.15,100.0,1078.4,Wei et al. (2020a),Liquid,0.697,1-ethyl-3-(2-methoxyethyl)imidazolium thiocyanate,,,CC[n+]1ccn(CCOC)c1.N#C[S-],1-ethyl-3-(2-methoxyethyl)imidazolium thiocyanate,AApAEZ,CC(C)O,propan-2-ol,AALcwx,CC[n+]1ccn(CCOC)c1,N#C[S-],2,,,,588,False,CC[n+]1ccn(CCOC)c1.N#C[S-],No changes
xTuRO,308.15,100.0,1097.0,Wei et al. (2020a),Liquid,0.8002,1-ethyl-3-(2-methoxyethyl)imidazolium thiocyanate,,,CC[n+]1ccn(CCOC)c1.N#C[S-],1-ethyl-3-(2-methoxyethyl)imidazolium thiocyanate,AApAEZ,CC(C)O,propan-2-ol,AALcwx,CC[n+]1ccn(CCOC)c1,N#C[S-],2,,,,589,False,CC[n+]1ccn(CCOC)c1.N#C[S-],No changes
xTuRO,308.15,100.0,1112.2,Wei et al. (2020a),Liquid,0.8991,1-ethyl-3-(2-methoxyethyl)imidazolium thiocyanate,,,CC[n+]1ccn(CCOC)c1.N#C[S-],1-ethyl-3-(2-methoxyethyl)imidazolium thiocyanate,AApAEZ,CC(C)O,propan-2-ol,AALcwx,CC[n+]1ccn(CCOC)c1,N#C[S-],2,,,,590,False,CC[n+]1ccn(CCOC)c1.N#C[S-],No changes
xTuRO,308.15,100.0,1126.5,Wei et al. (2020a),Liquid,1.0,1-ethyl-3-(2-methoxyethyl)imidazolium thiocyanate,,,CC[n+]1ccn(CCOC)c1.N#C[S-],1-ethyl-3-(2-methoxyethyl)imidazolium thiocyanate,AApAEZ,CC(C)O,propan-2-ol,AALcwx,CC[n+]1ccn(CCOC)c1,N#C[S-],2,,,,591,False,CC[n+]1ccn(CCOC)c1.N#C[S-],No changes
xTuRO,313.15,100.0,767.9,Wei et al. (2020a),Liquid,0.0,1-ethyl-3-(2-methoxyethyl)imidazolium thiocyanate,,,CC[n+]1ccn(CCOC)c1.N#C[S-],1-ethyl-3-(2-methoxyethyl)imidazolium thiocyanate,AApAEZ,CC(C)O,propan-2-ol,AALcwx,CC[n+]1ccn(CCOC)c1,N#C[S-],2,,,,592,False,CC[n+]1ccn(CCOC)c1.N#C[S-],No changes
xTuRO,313.15,100.0,850.0,Wei et al. (2020a),Liquid,0.1,1-ethyl-3-(2-methoxyethyl)imidazolium thiocyanate,,,CC[n+]1ccn(CCOC)c1.N#C[S-],1-ethyl-3-(2-methoxyethyl)imidazolium thiocyanate,AApAEZ,CC(C)O,propan-2-ol,AALcwx,CC[n+]1ccn(CCOC)c1,N#C[S-],2,,,,593,False,CC[n+]1ccn(CCOC)c1.N#C[S-],No changes
xTuRO,313.15,100.0,911.7,Wei et al. (2020a),Liquid,0.1998,1-ethyl-3-(2-methoxyethyl)imidazolium thiocyanate,,,CC[n+]1ccn(CCOC)c1.N#C[S-],1-ethyl-3-(2-methoxyethyl)imidazolium thiocyanate,AApAEZ,CC(C)O,propan-2-ol,AALcwx,CC[n+]1ccn(CCOC)c1,N#C[S-],2,,,,594,False,CC[n+]1ccn(CCOC)c1.N#C[S-],No changes
xTuRO,313.15,100.0,968.7,Wei et al. (2020a),Liquid,0.3234,1-ethyl-3-(2-methoxyethyl)imidazolium thiocyanate,,,CC[n+]1ccn(CCOC)c1.N#C[S-],1-ethyl-3-(2-methoxyethyl)imidazolium thiocyanate,AApAEZ,CC(C)O,propan-2-ol,AALcwx,CC[n+]1ccn(CCOC)c1,N#C[S-],2,,,,595,False,CC[n+]1ccn(CCOC)c1.N#C[S-],No changes
xTuRO,313.15,100.0,996.8,Wei et al. (2020a),Liquid,0.3998,1-ethyl-3-(2-methoxyethyl)imidazolium thiocyanate,,,CC[n+]1ccn(CCOC)c1.N#C[S-],1-ethyl-3-(2-methoxyethyl)imidazolium thiocyanate,AApAEZ,CC(C)O,propan-2-ol,AALcwx,CC[n+]1ccn(CCOC)c1,N#C[S-],2,,,,596,False,CC[n+]1ccn(CCOC)c1.N#C[S-],No changes