setid,Temperature (K),Pressure (kPa),Density (kg/m3),reference,phases,Mole fraction,Mole fraction of compound name,Weight fraction,Weight fraction of compound name,IL_SMILES,IL_name,IL_ID,Solvent_SMILES,Solvent_name,Solvent_ID,IL_cation_SMILES,IL_anion_SMILES,IL_component_number,Mole fraction of solvent,IL_MW,Solvent_MW,Record_ID,Contains_Metal,Standardized_IL_SMILES,Changes
kKloD,318.15,100.0,1023.2,Xing et al. (2017),Liquid,0.4942,1-ethylpyridinium dicyanamide,,,CC[n+]1ccccc1.N#C[N-]C#N,1-ethylpyridinium dicyanamide,AAhaEl,CCO,ethanol,AAIsrh,CC[n+]1ccccc1,N#C[N-]C#N,2,,,,2217,False,CC[n+]1ccccc1.N#C[N-]C#N,No changes
kKloD,318.15,100.0,1046.5,Xing et al. (2017),Liquid,0.6006,1-ethylpyridinium dicyanamide,,,CC[n+]1ccccc1.N#C[N-]C#N,1-ethylpyridinium dicyanamide,AAhaEl,CCO,ethanol,AAIsrh,CC[n+]1ccccc1,N#C[N-]C#N,2,,,,2218,False,CC[n+]1ccccc1.N#C[N-]C#N,No changes
kKloD,318.15,100.0,1064.4,Xing et al. (2017),Liquid,0.6992,1-ethylpyridinium dicyanamide,,,CC[n+]1ccccc1.N#C[N-]C#N,1-ethylpyridinium dicyanamide,AAhaEl,CCO,ethanol,AAIsrh,CC[n+]1ccccc1,N#C[N-]C#N,2,,,,2219,False,CC[n+]1ccccc1.N#C[N-]C#N,No changes
kKloD,318.15,100.0,1079.7,Xing et al. (2017),Liquid,0.8026,1-ethylpyridinium dicyanamide,,,CC[n+]1ccccc1.N#C[N-]C#N,1-ethylpyridinium dicyanamide,AAhaEl,CCO,ethanol,AAIsrh,CC[n+]1ccccc1,N#C[N-]C#N,2,,,,2220,False,CC[n+]1ccccc1.N#C[N-]C#N,No changes
kKloD,318.15,100.0,1093.0,Xing et al. (2017),Liquid,0.8992,1-ethylpyridinium dicyanamide,,,CC[n+]1ccccc1.N#C[N-]C#N,1-ethylpyridinium dicyanamide,AAhaEl,CCO,ethanol,AAIsrh,CC[n+]1ccccc1,N#C[N-]C#N,2,,,,2221,False,CC[n+]1ccccc1.N#C[N-]C#N,No changes
kKloD,318.15,100.0,1105.9,Xing et al. (2017),Liquid,1.0,1-ethylpyridinium dicyanamide,,,CC[n+]1ccccc1.N#C[N-]C#N,1-ethylpyridinium dicyanamide,AAhaEl,CCO,ethanol,AAIsrh,CC[n+]1ccccc1,N#C[N-]C#N,2,,,,2222,False,CC[n+]1ccccc1.N#C[N-]C#N,No changes
feYvC,298.15,101.0,1425.6,Andreatta et al. (2010b),Liquid,0.9207,ethanol,,,CCCC[n+]1ccn(C)c1.O=S(=O)([N-]S(=O)(=O)C(F)(F)F)C(F)(F)F,1-butyl-3-methylimidazolium bis(trifluoromethylsulfonyl)imide,ABchwx,CCO,ethanol,AAIsrh,CCCC[n+]1ccn(C)c1,O=S(=O)([N-]S(=O)(=O)C(F)(F)F)C(F)(F)F,2,0.0793,,,2223,False,CCCC[n+]1ccn(C)c1.O=S(=O)([N-]S(=O)(=O)C(F)(F)F)C(F)(F)F,No changes
feYvC,298.15,101.0,1419.8,Andreatta et al. (2010b),Liquid,0.8826,ethanol,,,CCCC[n+]1ccn(C)c1.O=S(=O)([N-]S(=O)(=O)C(F)(F)F)C(F)(F)F,1-butyl-3-methylimidazolium bis(trifluoromethylsulfonyl)imide,ABchwx,CCO,ethanol,AAIsrh,CCCC[n+]1ccn(C)c1,O=S(=O)([N-]S(=O)(=O)C(F)(F)F)C(F)(F)F,2,0.1174,,,2224,False,CCCC[n+]1ccn(C)c1.O=S(=O)([N-]S(=O)(=O)C(F)(F)F)C(F)(F)F,No changes
feYvC,298.15,101.0,1416.2,Andreatta et al. (2010b),Liquid,0.8607,ethanol,,,CCCC[n+]1ccn(C)c1.O=S(=O)([N-]S(=O)(=O)C(F)(F)F)C(F)(F)F,1-butyl-3-methylimidazolium bis(trifluoromethylsulfonyl)imide,ABchwx,CCO,ethanol,AAIsrh,CCCC[n+]1ccn(C)c1,O=S(=O)([N-]S(=O)(=O)C(F)(F)F)C(F)(F)F,2,0.1393,,,2225,False,CCCC[n+]1ccn(C)c1.O=S(=O)([N-]S(=O)(=O)C(F)(F)F)C(F)(F)F,No changes
feYvC,298.15,101.0,1404.6,Andreatta et al. (2010b),Liquid,0.7942,ethanol,,,CCCC[n+]1ccn(C)c1.O=S(=O)([N-]S(=O)(=O)C(F)(F)F)C(F)(F)F,1-butyl-3-methylimidazolium bis(trifluoromethylsulfonyl)imide,ABchwx,CCO,ethanol,AAIsrh,CCCC[n+]1ccn(C)c1,O=S(=O)([N-]S(=O)(=O)C(F)(F)F)C(F)(F)F,2,0.2058,,,2226,False,CCCC[n+]1ccn(C)c1.O=S(=O)([N-]S(=O)(=O)C(F)(F)F)C(F)(F)F,No changes
feYvC,298.15,101.0,1394.5,Andreatta et al. (2010b),Liquid,0.7422,ethanol,,,CCCC[n+]1ccn(C)c1.O=S(=O)([N-]S(=O)(=O)C(F)(F)F)C(F)(F)F,1-butyl-3-methylimidazolium bis(trifluoromethylsulfonyl)imide,ABchwx,CCO,ethanol,AAIsrh,CCCC[n+]1ccn(C)c1,O=S(=O)([N-]S(=O)(=O)C(F)(F)F)C(F)(F)F,2,0.2578,,,2227,False,CCCC[n+]1ccn(C)c1.O=S(=O)([N-]S(=O)(=O)C(F)(F)F)C(F)(F)F,No changes
feYvC,298.15,101.0,1374.8,Andreatta et al. (2010b),Liquid,0.655,ethanol,,,CCCC[n+]1ccn(C)c1.O=S(=O)([N-]S(=O)(=O)C(F)(F)F)C(F)(F)F,1-butyl-3-methylimidazolium bis(trifluoromethylsulfonyl)imide,ABchwx,CCO,ethanol,AAIsrh,CCCC[n+]1ccn(C)c1,O=S(=O)([N-]S(=O)(=O)C(F)(F)F)C(F)(F)F,2,0.345,,,2228,False,CCCC[n+]1ccn(C)c1.O=S(=O)([N-]S(=O)(=O)C(F)(F)F)C(F)(F)F,No changes
feYvC,298.15,101.0,1364.9,Andreatta et al. (2010b),Liquid,0.616,ethanol,,,CCCC[n+]1ccn(C)c1.O=S(=O)([N-]S(=O)(=O)C(F)(F)F)C(F)(F)F,1-butyl-3-methylimidazolium bis(trifluoromethylsulfonyl)imide,ABchwx,CCO,ethanol,AAIsrh,CCCC[n+]1ccn(C)c1,O=S(=O)([N-]S(=O)(=O)C(F)(F)F)C(F)(F)F,2,0.384,,,2229,False,CCCC[n+]1ccn(C)c1.O=S(=O)([N-]S(=O)(=O)C(F)(F)F)C(F)(F)F,No changes
feYvC,298.15,101.0,1357.2,Andreatta et al. (2010b),Liquid,0.5878,ethanol,,,CCCC[n+]1ccn(C)c1.O=S(=O)([N-]S(=O)(=O)C(F)(F)F)C(F)(F)F,1-butyl-3-methylimidazolium bis(trifluoromethylsulfonyl)imide,ABchwx,CCO,ethanol,AAIsrh,CCCC[n+]1ccn(C)c1,O=S(=O)([N-]S(=O)(=O)C(F)(F)F)C(F)(F)F,2,0.4122,,,2230,False,CCCC[n+]1ccn(C)c1.O=S(=O)([N-]S(=O)(=O)C(F)(F)F)C(F)(F)F,No changes
feYvC,298.15,101.0,1304.8,Andreatta et al. (2010b),Liquid,0.4377999999999999,ethanol,,,CCCC[n+]1ccn(C)c1.O=S(=O)([N-]S(=O)(=O)C(F)(F)F)C(F)(F)F,1-butyl-3-methylimidazolium bis(trifluoromethylsulfonyl)imide,ABchwx,CCO,ethanol,AAIsrh,CCCC[n+]1ccn(C)c1,O=S(=O)([N-]S(=O)(=O)C(F)(F)F)C(F)(F)F,2,0.5622,,,2231,False,CCCC[n+]1ccn(C)c1.O=S(=O)([N-]S(=O)(=O)C(F)(F)F)C(F)(F)F,No changes
feYvC,298.15,101.0,1239.28,Andreatta et al. (2010b),Liquid,0.312,ethanol,,,CCCC[n+]1ccn(C)c1.O=S(=O)([N-]S(=O)(=O)C(F)(F)F)C(F)(F)F,1-butyl-3-methylimidazolium bis(trifluoromethylsulfonyl)imide,ABchwx,CCO,ethanol,AAIsrh,CCCC[n+]1ccn(C)c1,O=S(=O)([N-]S(=O)(=O)C(F)(F)F)C(F)(F)F,2,0.688,,,2232,False,CCCC[n+]1ccn(C)c1.O=S(=O)([N-]S(=O)(=O)C(F)(F)F)C(F)(F)F,No changes
feYvC,298.15,101.0,1153.32,Andreatta et al. (2010b),Liquid,0.2033,ethanol,,,CCCC[n+]1ccn(C)c1.O=S(=O)([N-]S(=O)(=O)C(F)(F)F)C(F)(F)F,1-butyl-3-methylimidazolium bis(trifluoromethylsulfonyl)imide,ABchwx,CCO,ethanol,AAIsrh,CCCC[n+]1ccn(C)c1,O=S(=O)([N-]S(=O)(=O)C(F)(F)F)C(F)(F)F,2,0.7967,,,2233,False,CCCC[n+]1ccn(C)c1.O=S(=O)([N-]S(=O)(=O)C(F)(F)F)C(F)(F)F,No changes
feYvC,298.15,101.0,1023.9,Andreatta et al. (2010b),Liquid,0.1016,ethanol,,,CCCC[n+]1ccn(C)c1.O=S(=O)([N-]S(=O)(=O)C(F)(F)F)C(F)(F)F,1-butyl-3-methylimidazolium bis(trifluoromethylsulfonyl)imide,ABchwx,CCO,ethanol,AAIsrh,CCCC[n+]1ccn(C)c1,O=S(=O)([N-]S(=O)(=O)C(F)(F)F)C(F)(F)F,2,0.8984,,,2234,False,CCCC[n+]1ccn(C)c1.O=S(=O)([N-]S(=O)(=O)C(F)(F)F)C(F)(F)F,No changes
ElGyo,298.15,101.0,1001.4,Sanchez et al. (2018),Liquid,0.2011,"1,3-dimethylimidazolium dimethyl phosphate",,,Cn1cc[n+](C)c1.COP(=O)([O-])OC,"1,3-dimethylimidazolium dimethyl phosphate",AAqlaB,CCO,ethanol,AAIsrh,Cn1cc[n+](C)c1,COP(=O)([O-])OC,2,,,,2235,False,Cn1cc[n+](C)c1.COP(=O)([O-])OC,No changes
ElGyo,298.15,101.0,1151.4,Sanchez et al. (2018),Liquid,0.5056,"1,3-dimethylimidazolium dimethyl phosphate",,,Cn1cc[n+](C)c1.COP(=O)([O-])OC,"1,3-dimethylimidazolium dimethyl phosphate",AAqlaB,CCO,ethanol,AAIsrh,Cn1cc[n+](C)c1,COP(=O)([O-])OC,2,,,,2236,False,Cn1cc[n+](C)c1.COP(=O)([O-])OC,No changes
ElGyo,298.15,101.0,1226.0,Sanchez et al. (2018),Liquid,0.8017,"1,3-dimethylimidazolium dimethyl phosphate",,,Cn1cc[n+](C)c1.COP(=O)([O-])OC,"1,3-dimethylimidazolium dimethyl phosphate",AAqlaB,CCO,ethanol,AAIsrh,Cn1cc[n+](C)c1,COP(=O)([O-])OC,2,,,,2237,False,Cn1cc[n+](C)c1.COP(=O)([O-])OC,No changes
ElGyo,313.15,101.0,990.0,Sanchez et al. (2018),Liquid,0.2011,"1,3-dimethylimidazolium dimethyl phosphate",,,Cn1cc[n+](C)c1.COP(=O)([O-])OC,"1,3-dimethylimidazolium dimethyl phosphate",AAqlaB,CCO,ethanol,AAIsrh,Cn1cc[n+](C)c1,COP(=O)([O-])OC,2,,,,2238,False,Cn1cc[n+](C)c1.COP(=O)([O-])OC,No changes
ElGyo,313.15,101.0,1140.7,Sanchez et al. (2018),Liquid,0.5056,"1,3-dimethylimidazolium dimethyl phosphate",,,Cn1cc[n+](C)c1.COP(=O)([O-])OC,"1,3-dimethylimidazolium dimethyl phosphate",AAqlaB,CCO,ethanol,AAIsrh,Cn1cc[n+](C)c1,COP(=O)([O-])OC,2,,,,2239,False,Cn1cc[n+](C)c1.COP(=O)([O-])OC,No changes
ElGyo,313.15,101.0,1215.5,Sanchez et al. (2018),Liquid,0.8017,"1,3-dimethylimidazolium dimethyl phosphate",,,Cn1cc[n+](C)c1.COP(=O)([O-])OC,"1,3-dimethylimidazolium dimethyl phosphate",AAqlaB,CCO,ethanol,AAIsrh,Cn1cc[n+](C)c1,COP(=O)([O-])OC,2,,,,2240,False,Cn1cc[n+](C)c1.COP(=O)([O-])OC,No changes
ElGyo,333.15,101.0,974.9,Sanchez et al. (2018),Liquid,0.2011,"1,3-dimethylimidazolium dimethyl phosphate",,,Cn1cc[n+](C)c1.COP(=O)([O-])OC,"1,3-dimethylimidazolium dimethyl phosphate",AAqlaB,CCO,ethanol,AAIsrh,Cn1cc[n+](C)c1,COP(=O)([O-])OC,2,,,,2241,False,Cn1cc[n+](C)c1.COP(=O)([O-])OC,No changes
ElGyo,333.15,101.0,1126.5,Sanchez et al. (2018),Liquid,0.5056,"1,3-dimethylimidazolium dimethyl phosphate",,,Cn1cc[n+](C)c1.COP(=O)([O-])OC,"1,3-dimethylimidazolium dimethyl phosphate",AAqlaB,CCO,ethanol,AAIsrh,Cn1cc[n+](C)c1,COP(=O)([O-])OC,2,,,,2242,False,Cn1cc[n+](C)c1.COP(=O)([O-])OC,No changes
ElGyo,333.15,101.0,1201.7,Sanchez et al. (2018),Liquid,0.8017,"1,3-dimethylimidazolium dimethyl phosphate",,,Cn1cc[n+](C)c1.COP(=O)([O-])OC,"1,3-dimethylimidazolium dimethyl phosphate",AAqlaB,CCO,ethanol,AAIsrh,Cn1cc[n+](C)c1,COP(=O)([O-])OC,2,,,,2243,False,Cn1cc[n+](C)c1.COP(=O)([O-])OC,No changes
ZRQpq,293.15,93.2,813.3,Bittencourt et al. (2018),Liquid,0.0501,butylammonium acetate,,,CCCC[NH3+].CC(=O)[O-],butylammonium acetate,AAZfnG,CCO,ethanol,AAIsrh,CCCC[NH3+],CC(=O)[O-],2,,,,2244,False,CCCC[NH3+].CC(=O)[O-],No changes
ZRQpq,293.15,93.2,832.1,Bittencourt et al. (2018),Liquid,0.0992,butylammonium acetate,,,CCCC[NH3+].CC(=O)[O-],butylammonium acetate,AAZfnG,CCO,ethanol,AAIsrh,CCCC[NH3+],CC(=O)[O-],2,,,,2245,False,CCCC[NH3+].CC(=O)[O-],No changes
ZRQpq,293.15,93.2,848.5,Bittencourt et al. (2018),Liquid,0.15,butylammonium acetate,,,CCCC[NH3+].CC(=O)[O-],butylammonium acetate,AAZfnG,CCO,ethanol,AAIsrh,CCCC[NH3+],CC(=O)[O-],2,,,,2246,False,CCCC[NH3+].CC(=O)[O-],No changes
ZRQpq,293.15,93.2,862.4,Bittencourt et al. (2018),Liquid,0.2001,butylammonium acetate,,,CCCC[NH3+].CC(=O)[O-],butylammonium acetate,AAZfnG,CCO,ethanol,AAIsrh,CCCC[NH3+],CC(=O)[O-],2,,,,2247,False,CCCC[NH3+].CC(=O)[O-],No changes
ZRQpq,293.15,93.2,874.7,Bittencourt et al. (2018),Liquid,0.2511,butylammonium acetate,,,CCCC[NH3+].CC(=O)[O-],butylammonium acetate,AAZfnG,CCO,ethanol,AAIsrh,CCCC[NH3+],CC(=O)[O-],2,,,,2248,False,CCCC[NH3+].CC(=O)[O-],No changes
ZRQpq,293.15,93.2,885.2,Bittencourt et al. (2018),Liquid,0.3001,butylammonium acetate,,,CCCC[NH3+].CC(=O)[O-],butylammonium acetate,AAZfnG,CCO,ethanol,AAIsrh,CCCC[NH3+],CC(=O)[O-],2,,,,2249,False,CCCC[NH3+].CC(=O)[O-],No changes
ZRQpq,293.15,93.2,894.7,Bittencourt et al. (2018),Liquid,0.35,butylammonium acetate,,,CCCC[NH3+].CC(=O)[O-],butylammonium acetate,AAZfnG,CCO,ethanol,AAIsrh,CCCC[NH3+],CC(=O)[O-],2,,,,2250,False,CCCC[NH3+].CC(=O)[O-],No changes
ZRQpq,293.15,93.2,903.2,Bittencourt et al. (2018),Liquid,0.3999,butylammonium acetate,,,CCCC[NH3+].CC(=O)[O-],butylammonium acetate,AAZfnG,CCO,ethanol,AAIsrh,CCCC[NH3+],CC(=O)[O-],2,,,,2251,False,CCCC[NH3+].CC(=O)[O-],No changes
ZRQpq,293.15,93.2,910.587,Bittencourt et al. (2018),Liquid,0.4483,butylammonium acetate,,,CCCC[NH3+].CC(=O)[O-],butylammonium acetate,AAZfnG,CCO,ethanol,AAIsrh,CCCC[NH3+],CC(=O)[O-],2,,,,2252,False,CCCC[NH3+].CC(=O)[O-],No changes
ZRQpq,293.15,93.2,917.584,Bittencourt et al. (2018),Liquid,0.4987,butylammonium acetate,,,CCCC[NH3+].CC(=O)[O-],butylammonium acetate,AAZfnG,CCO,ethanol,AAIsrh,CCCC[NH3+],CC(=O)[O-],2,,,,2253,False,CCCC[NH3+].CC(=O)[O-],No changes
ZRQpq,293.15,93.2,924.078,Bittencourt et al. (2018),Liquid,0.5503,butylammonium acetate,,,CCCC[NH3+].CC(=O)[O-],butylammonium acetate,AAZfnG,CCO,ethanol,AAIsrh,CCCC[NH3+],CC(=O)[O-],2,,,,2254,False,CCCC[NH3+].CC(=O)[O-],No changes
ZRQpq,293.15,93.2,929.818,Bittencourt et al. (2018),Liquid,0.6002,butylammonium acetate,,,CCCC[NH3+].CC(=O)[O-],butylammonium acetate,AAZfnG,CCO,ethanol,AAIsrh,CCCC[NH3+],CC(=O)[O-],2,,,,2255,False,CCCC[NH3+].CC(=O)[O-],No changes
ZRQpq,293.15,93.2,935.21,Bittencourt et al. (2018),Liquid,0.6511,butylammonium acetate,,,CCCC[NH3+].CC(=O)[O-],butylammonium acetate,AAZfnG,CCO,ethanol,AAIsrh,CCCC[NH3+],CC(=O)[O-],2,,,,2256,False,CCCC[NH3+].CC(=O)[O-],No changes
ZRQpq,293.15,93.2,940.062,Bittencourt et al. (2018),Liquid,0.7008,butylammonium acetate,,,CCCC[NH3+].CC(=O)[O-],butylammonium acetate,AAZfnG,CCO,ethanol,AAIsrh,CCCC[NH3+],CC(=O)[O-],2,,,,2257,False,CCCC[NH3+].CC(=O)[O-],No changes
ZRQpq,293.15,93.2,944.437,Bittencourt et al. (2018),Liquid,0.7495,butylammonium acetate,,,CCCC[NH3+].CC(=O)[O-],butylammonium acetate,AAZfnG,CCO,ethanol,AAIsrh,CCCC[NH3+],CC(=O)[O-],2,,,,2258,False,CCCC[NH3+].CC(=O)[O-],No changes
ZRQpq,293.15,93.2,948.632,Bittencourt et al. (2018),Liquid,0.7988,butylammonium acetate,,,CCCC[NH3+].CC(=O)[O-],butylammonium acetate,AAZfnG,CCO,ethanol,AAIsrh,CCCC[NH3+],CC(=O)[O-],2,,,,2259,False,CCCC[NH3+].CC(=O)[O-],No changes
ZRQpq,293.15,93.2,952.534,Bittencourt et al. (2018),Liquid,0.8496,butylammonium acetate,,,CCCC[NH3+].CC(=O)[O-],butylammonium acetate,AAZfnG,CCO,ethanol,AAIsrh,CCCC[NH3+],CC(=O)[O-],2,,,,2260,False,CCCC[NH3+].CC(=O)[O-],No changes
ZRQpq,293.15,93.2,956.331,Bittencourt et al. (2018),Liquid,0.9015,butylammonium acetate,,,CCCC[NH3+].CC(=O)[O-],butylammonium acetate,AAZfnG,CCO,ethanol,AAIsrh,CCCC[NH3+],CC(=O)[O-],2,,,,2261,False,CCCC[NH3+].CC(=O)[O-],No changes
ZRQpq,293.15,93.2,959.627,Bittencourt et al. (2018),Liquid,0.9493,butylammonium acetate,,,CCCC[NH3+].CC(=O)[O-],butylammonium acetate,AAZfnG,CCO,ethanol,AAIsrh,CCCC[NH3+],CC(=O)[O-],2,,,,2262,False,CCCC[NH3+].CC(=O)[O-],No changes
ZRQpq,293.15,93.2,962.92,Bittencourt et al. (2018),Liquid,1.0,butylammonium acetate,,,CCCC[NH3+].CC(=O)[O-],butylammonium acetate,AAZfnG,CCO,ethanol,AAIsrh,CCCC[NH3+],CC(=O)[O-],2,,,,2263,False,CCCC[NH3+].CC(=O)[O-],No changes
ZRQpq,298.15,93.2,809.1,Bittencourt et al. (2018),Liquid,0.0501,butylammonium acetate,,,CCCC[NH3+].CC(=O)[O-],butylammonium acetate,AAZfnG,CCO,ethanol,AAIsrh,CCCC[NH3+],CC(=O)[O-],2,,,,2264,False,CCCC[NH3+].CC(=O)[O-],No changes
ZRQpq,298.15,93.2,828.1,Bittencourt et al. (2018),Liquid,0.0992,butylammonium acetate,,,CCCC[NH3+].CC(=O)[O-],butylammonium acetate,AAZfnG,CCO,ethanol,AAIsrh,CCCC[NH3+],CC(=O)[O-],2,,,,2265,False,CCCC[NH3+].CC(=O)[O-],No changes
ZRQpq,298.15,93.2,844.6,Bittencourt et al. (2018),Liquid,0.15,butylammonium acetate,,,CCCC[NH3+].CC(=O)[O-],butylammonium acetate,AAZfnG,CCO,ethanol,AAIsrh,CCCC[NH3+],CC(=O)[O-],2,,,,2266,False,CCCC[NH3+].CC(=O)[O-],No changes
ZRQpq,298.15,93.2,858.6,Bittencourt et al. (2018),Liquid,0.2001,butylammonium acetate,,,CCCC[NH3+].CC(=O)[O-],butylammonium acetate,AAZfnG,CCO,ethanol,AAIsrh,CCCC[NH3+],CC(=O)[O-],2,,,,2267,False,CCCC[NH3+].CC(=O)[O-],No changes
ZRQpq,298.15,93.2,871.0,Bittencourt et al. (2018),Liquid,0.2511,butylammonium acetate,,,CCCC[NH3+].CC(=O)[O-],butylammonium acetate,AAZfnG,CCO,ethanol,AAIsrh,CCCC[NH3+],CC(=O)[O-],2,,,,2268,False,CCCC[NH3+].CC(=O)[O-],No changes
ZRQpq,298.15,93.2,881.5,Bittencourt et al. (2018),Liquid,0.3001,butylammonium acetate,,,CCCC[NH3+].CC(=O)[O-],butylammonium acetate,AAZfnG,CCO,ethanol,AAIsrh,CCCC[NH3+],CC(=O)[O-],2,,,,2269,False,CCCC[NH3+].CC(=O)[O-],No changes
ZRQpq,298.15,93.2,891.1,Bittencourt et al. (2018),Liquid,0.35,butylammonium acetate,,,CCCC[NH3+].CC(=O)[O-],butylammonium acetate,AAZfnG,CCO,ethanol,AAIsrh,CCCC[NH3+],CC(=O)[O-],2,,,,2270,False,CCCC[NH3+].CC(=O)[O-],No changes
ZRQpq,298.15,93.2,899.7,Bittencourt et al. (2018),Liquid,0.3999,butylammonium acetate,,,CCCC[NH3+].CC(=O)[O-],butylammonium acetate,AAZfnG,CCO,ethanol,AAIsrh,CCCC[NH3+],CC(=O)[O-],2,,,,2271,False,CCCC[NH3+].CC(=O)[O-],No changes
ZRQpq,298.15,93.2,907.093,Bittencourt et al. (2018),Liquid,0.4483,butylammonium acetate,,,CCCC[NH3+].CC(=O)[O-],butylammonium acetate,AAZfnG,CCO,ethanol,AAIsrh,CCCC[NH3+],CC(=O)[O-],2,,,,2272,False,CCCC[NH3+].CC(=O)[O-],No changes
ZRQpq,298.15,93.2,914.128,Bittencourt et al. (2018),Liquid,0.4987,butylammonium acetate,,,CCCC[NH3+].CC(=O)[O-],butylammonium acetate,AAZfnG,CCO,ethanol,AAIsrh,CCCC[NH3+],CC(=O)[O-],2,,,,2273,False,CCCC[NH3+].CC(=O)[O-],No changes
ZRQpq,298.15,93.2,920.659,Bittencourt et al. (2018),Liquid,0.5503,butylammonium acetate,,,CCCC[NH3+].CC(=O)[O-],butylammonium acetate,AAZfnG,CCO,ethanol,AAIsrh,CCCC[NH3+],CC(=O)[O-],2,,,,2274,False,CCCC[NH3+].CC(=O)[O-],No changes
ZRQpq,298.15,93.2,926.429,Bittencourt et al. (2018),Liquid,0.6002,butylammonium acetate,,,CCCC[NH3+].CC(=O)[O-],butylammonium acetate,AAZfnG,CCO,ethanol,AAIsrh,CCCC[NH3+],CC(=O)[O-],2,,,,2275,False,CCCC[NH3+].CC(=O)[O-],No changes
ZRQpq,298.15,93.2,931.853,Bittencourt et al. (2018),Liquid,0.6511,butylammonium acetate,,,CCCC[NH3+].CC(=O)[O-],butylammonium acetate,AAZfnG,CCO,ethanol,AAIsrh,CCCC[NH3+],CC(=O)[O-],2,,,,2276,False,CCCC[NH3+].CC(=O)[O-],No changes
ZRQpq,298.15,93.2,936.738,Bittencourt et al. (2018),Liquid,0.7008,butylammonium acetate,,,CCCC[NH3+].CC(=O)[O-],butylammonium acetate,AAZfnG,CCO,ethanol,AAIsrh,CCCC[NH3+],CC(=O)[O-],2,,,,2277,False,CCCC[NH3+].CC(=O)[O-],No changes
ZRQpq,298.15,93.2,941.147,Bittencourt et al. (2018),Liquid,0.7495,butylammonium acetate,,,CCCC[NH3+].CC(=O)[O-],butylammonium acetate,AAZfnG,CCO,ethanol,AAIsrh,CCCC[NH3+],CC(=O)[O-],2,,,,2278,False,CCCC[NH3+].CC(=O)[O-],No changes
ZRQpq,298.15,93.2,945.376,Bittencourt et al. (2018),Liquid,0.7988,butylammonium acetate,,,CCCC[NH3+].CC(=O)[O-],butylammonium acetate,AAZfnG,CCO,ethanol,AAIsrh,CCCC[NH3+],CC(=O)[O-],2,,,,2279,False,CCCC[NH3+].CC(=O)[O-],No changes
ZRQpq,298.15,93.2,949.301,Bittencourt et al. (2018),Liquid,0.8496,butylammonium acetate,,,CCCC[NH3+].CC(=O)[O-],butylammonium acetate,AAZfnG,CCO,ethanol,AAIsrh,CCCC[NH3+],CC(=O)[O-],2,,,,2280,False,CCCC[NH3+].CC(=O)[O-],No changes
ZRQpq,298.15,93.2,953.098,Bittencourt et al. (2018),Liquid,0.9015,butylammonium acetate,,,CCCC[NH3+].CC(=O)[O-],butylammonium acetate,AAZfnG,CCO,ethanol,AAIsrh,CCCC[NH3+],CC(=O)[O-],2,,,,2281,False,CCCC[NH3+].CC(=O)[O-],No changes
ZRQpq,298.15,93.2,956.375,Bittencourt et al. (2018),Liquid,0.9493,butylammonium acetate,,,CCCC[NH3+].CC(=O)[O-],butylammonium acetate,AAZfnG,CCO,ethanol,AAIsrh,CCCC[NH3+],CC(=O)[O-],2,,,,2282,False,CCCC[NH3+].CC(=O)[O-],No changes
ZRQpq,298.15,93.2,959.722,Bittencourt et al. (2018),Liquid,1.0,butylammonium acetate,,,CCCC[NH3+].CC(=O)[O-],butylammonium acetate,AAZfnG,CCO,ethanol,AAIsrh,CCCC[NH3+],CC(=O)[O-],2,,,,2283,False,CCCC[NH3+].CC(=O)[O-],No changes
ZRQpq,303.15,93.2,805.0,Bittencourt et al. (2018),Liquid,0.0501,butylammonium acetate,,,CCCC[NH3+].CC(=O)[O-],butylammonium acetate,AAZfnG,CCO,ethanol,AAIsrh,CCCC[NH3+],CC(=O)[O-],2,,,,2284,False,CCCC[NH3+].CC(=O)[O-],No changes
ZRQpq,303.15,93.2,824.1,Bittencourt et al. (2018),Liquid,0.0992,butylammonium acetate,,,CCCC[NH3+].CC(=O)[O-],butylammonium acetate,AAZfnG,CCO,ethanol,AAIsrh,CCCC[NH3+],CC(=O)[O-],2,,,,2285,False,CCCC[NH3+].CC(=O)[O-],No changes
ZRQpq,303.15,93.2,840.7,Bittencourt et al. (2018),Liquid,0.15,butylammonium acetate,,,CCCC[NH3+].CC(=O)[O-],butylammonium acetate,AAZfnG,CCO,ethanol,AAIsrh,CCCC[NH3+],CC(=O)[O-],2,,,,2286,False,CCCC[NH3+].CC(=O)[O-],No changes
ZRQpq,303.15,93.2,854.8,Bittencourt et al. (2018),Liquid,0.2001,butylammonium acetate,,,CCCC[NH3+].CC(=O)[O-],butylammonium acetate,AAZfnG,CCO,ethanol,AAIsrh,CCCC[NH3+],CC(=O)[O-],2,,,,2287,False,CCCC[NH3+].CC(=O)[O-],No changes
ZRQpq,303.15,93.2,867.3,Bittencourt et al. (2018),Liquid,0.2511,butylammonium acetate,,,CCCC[NH3+].CC(=O)[O-],butylammonium acetate,AAZfnG,CCO,ethanol,AAIsrh,CCCC[NH3+],CC(=O)[O-],2,,,,2288,False,CCCC[NH3+].CC(=O)[O-],No changes
ZRQpq,303.15,93.2,877.9,Bittencourt et al. (2018),Liquid,0.3001,butylammonium acetate,,,CCCC[NH3+].CC(=O)[O-],butylammonium acetate,AAZfnG,CCO,ethanol,AAIsrh,CCCC[NH3+],CC(=O)[O-],2,,,,2289,False,CCCC[NH3+].CC(=O)[O-],No changes
ZRQpq,303.15,93.2,887.5,Bittencourt et al. (2018),Liquid,0.35,butylammonium acetate,,,CCCC[NH3+].CC(=O)[O-],butylammonium acetate,AAZfnG,CCO,ethanol,AAIsrh,CCCC[NH3+],CC(=O)[O-],2,,,,2290,False,CCCC[NH3+].CC(=O)[O-],No changes
ZRQpq,303.15,93.2,896.2,Bittencourt et al. (2018),Liquid,0.3999,butylammonium acetate,,,CCCC[NH3+].CC(=O)[O-],butylammonium acetate,AAZfnG,CCO,ethanol,AAIsrh,CCCC[NH3+],CC(=O)[O-],2,,,,2291,False,CCCC[NH3+].CC(=O)[O-],No changes