setid,Temperature (K),Pressure (kPa),Density (kg/m3),reference,phases,Mole fraction,Mole fraction of compound name,Weight fraction,Weight fraction of compound name,IL_SMILES,IL_name,IL_ID,Solvent_SMILES,Solvent_name,Solvent_ID,IL_cation_SMILES,IL_anion_SMILES,IL_component_number,Mole fraction of solvent,IL_MW,Solvent_MW,Record_ID,Contains_Metal,Standardized_IL_SMILES,Changes
YqDhU,293.15,100.0,1344.7,Fang et al. (2019b),Liquid,1.0,1-ethyl-3-(2-methoxyethyl)imidazolium trifluoromethanesulfonate,,,CC[n+]1ccn(CCOC)c1.O=S(=O)([O-])C(F)(F)F,1-ethyl-3-(2-methoxyethyl)imidazolium trifluoromethanesulfonate,ABGawV,CC(C)O,propan-2-ol,AALcwx,CC[n+]1ccn(CCOC)c1,O=S(=O)([O-])C(F)(F)F,2,,,,227,False,CC[n+]1ccn(CCOC)c1.O=S(=O)([O-])C(F)(F)F,No changes
YqDhU,298.15,100.0,780.9,Fang et al. (2019b),Liquid,0.0,1-ethyl-3-(2-methoxyethyl)imidazolium trifluoromethanesulfonate,,,CC[n+]1ccn(CCOC)c1.O=S(=O)([O-])C(F)(F)F,1-ethyl-3-(2-methoxyethyl)imidazolium trifluoromethanesulfonate,ABGawV,CC(C)O,propan-2-ol,AALcwx,CC[n+]1ccn(CCOC)c1,O=S(=O)([O-])C(F)(F)F,2,,,,228,False,CC[n+]1ccn(CCOC)c1.O=S(=O)([O-])C(F)(F)F,No changes
YqDhU,298.15,100.0,920.8,Fang et al. (2019b),Liquid,0.0997,1-ethyl-3-(2-methoxyethyl)imidazolium trifluoromethanesulfonate,,,CC[n+]1ccn(CCOC)c1.O=S(=O)([O-])C(F)(F)F,1-ethyl-3-(2-methoxyethyl)imidazolium trifluoromethanesulfonate,ABGawV,CC(C)O,propan-2-ol,AALcwx,CC[n+]1ccn(CCOC)c1,O=S(=O)([O-])C(F)(F)F,2,,,,229,False,CC[n+]1ccn(CCOC)c1.O=S(=O)([O-])C(F)(F)F,No changes
YqDhU,298.15,100.0,1022.1,Fang et al. (2019b),Liquid,0.2004,1-ethyl-3-(2-methoxyethyl)imidazolium trifluoromethanesulfonate,,,CC[n+]1ccn(CCOC)c1.O=S(=O)([O-])C(F)(F)F,1-ethyl-3-(2-methoxyethyl)imidazolium trifluoromethanesulfonate,ABGawV,CC(C)O,propan-2-ol,AALcwx,CC[n+]1ccn(CCOC)c1,O=S(=O)([O-])C(F)(F)F,2,,,,230,False,CC[n+]1ccn(CCOC)c1.O=S(=O)([O-])C(F)(F)F,No changes
YqDhU,298.15,100.0,1097.4,Fang et al. (2019b),Liquid,0.3004,1-ethyl-3-(2-methoxyethyl)imidazolium trifluoromethanesulfonate,,,CC[n+]1ccn(CCOC)c1.O=S(=O)([O-])C(F)(F)F,1-ethyl-3-(2-methoxyethyl)imidazolium trifluoromethanesulfonate,ABGawV,CC(C)O,propan-2-ol,AALcwx,CC[n+]1ccn(CCOC)c1,O=S(=O)([O-])C(F)(F)F,2,,,,231,False,CC[n+]1ccn(CCOC)c1.O=S(=O)([O-])C(F)(F)F,No changes
YqDhU,298.15,100.0,1155.3,Fang et al. (2019b),Liquid,0.4003,1-ethyl-3-(2-methoxyethyl)imidazolium trifluoromethanesulfonate,,,CC[n+]1ccn(CCOC)c1.O=S(=O)([O-])C(F)(F)F,1-ethyl-3-(2-methoxyethyl)imidazolium trifluoromethanesulfonate,ABGawV,CC(C)O,propan-2-ol,AALcwx,CC[n+]1ccn(CCOC)c1,O=S(=O)([O-])C(F)(F)F,2,,,,232,False,CC[n+]1ccn(CCOC)c1.O=S(=O)([O-])C(F)(F)F,No changes
YqDhU,298.15,100.0,1201.6,Fang et al. (2019b),Liquid,0.5004,1-ethyl-3-(2-methoxyethyl)imidazolium trifluoromethanesulfonate,,,CC[n+]1ccn(CCOC)c1.O=S(=O)([O-])C(F)(F)F,1-ethyl-3-(2-methoxyethyl)imidazolium trifluoromethanesulfonate,ABGawV,CC(C)O,propan-2-ol,AALcwx,CC[n+]1ccn(CCOC)c1,O=S(=O)([O-])C(F)(F)F,2,,,,233,False,CC[n+]1ccn(CCOC)c1.O=S(=O)([O-])C(F)(F)F,No changes
YqDhU,298.15,100.0,1239.8,Fang et al. (2019b),Liquid,0.6008,1-ethyl-3-(2-methoxyethyl)imidazolium trifluoromethanesulfonate,,,CC[n+]1ccn(CCOC)c1.O=S(=O)([O-])C(F)(F)F,1-ethyl-3-(2-methoxyethyl)imidazolium trifluoromethanesulfonate,ABGawV,CC(C)O,propan-2-ol,AALcwx,CC[n+]1ccn(CCOC)c1,O=S(=O)([O-])C(F)(F)F,2,,,,234,False,CC[n+]1ccn(CCOC)c1.O=S(=O)([O-])C(F)(F)F,No changes
YqDhU,298.15,100.0,1271.0,Fang et al. (2019b),Liquid,0.7,1-ethyl-3-(2-methoxyethyl)imidazolium trifluoromethanesulfonate,,,CC[n+]1ccn(CCOC)c1.O=S(=O)([O-])C(F)(F)F,1-ethyl-3-(2-methoxyethyl)imidazolium trifluoromethanesulfonate,ABGawV,CC(C)O,propan-2-ol,AALcwx,CC[n+]1ccn(CCOC)c1,O=S(=O)([O-])C(F)(F)F,2,,,,235,False,CC[n+]1ccn(CCOC)c1.O=S(=O)([O-])C(F)(F)F,No changes
YqDhU,298.15,100.0,1297.6,Fang et al. (2019b),Liquid,0.7998,1-ethyl-3-(2-methoxyethyl)imidazolium trifluoromethanesulfonate,,,CC[n+]1ccn(CCOC)c1.O=S(=O)([O-])C(F)(F)F,1-ethyl-3-(2-methoxyethyl)imidazolium trifluoromethanesulfonate,ABGawV,CC(C)O,propan-2-ol,AALcwx,CC[n+]1ccn(CCOC)c1,O=S(=O)([O-])C(F)(F)F,2,,,,236,False,CC[n+]1ccn(CCOC)c1.O=S(=O)([O-])C(F)(F)F,No changes
YqDhU,298.15,100.0,1320.8,Fang et al. (2019b),Liquid,0.9003,1-ethyl-3-(2-methoxyethyl)imidazolium trifluoromethanesulfonate,,,CC[n+]1ccn(CCOC)c1.O=S(=O)([O-])C(F)(F)F,1-ethyl-3-(2-methoxyethyl)imidazolium trifluoromethanesulfonate,ABGawV,CC(C)O,propan-2-ol,AALcwx,CC[n+]1ccn(CCOC)c1,O=S(=O)([O-])C(F)(F)F,2,,,,237,False,CC[n+]1ccn(CCOC)c1.O=S(=O)([O-])C(F)(F)F,No changes
YqDhU,298.15,100.0,1340.4,Fang et al. (2019b),Liquid,1.0,1-ethyl-3-(2-methoxyethyl)imidazolium trifluoromethanesulfonate,,,CC[n+]1ccn(CCOC)c1.O=S(=O)([O-])C(F)(F)F,1-ethyl-3-(2-methoxyethyl)imidazolium trifluoromethanesulfonate,ABGawV,CC(C)O,propan-2-ol,AALcwx,CC[n+]1ccn(CCOC)c1,O=S(=O)([O-])C(F)(F)F,2,,,,238,False,CC[n+]1ccn(CCOC)c1.O=S(=O)([O-])C(F)(F)F,No changes
YqDhU,303.15,100.0,776.6,Fang et al. (2019b),Liquid,0.0,1-ethyl-3-(2-methoxyethyl)imidazolium trifluoromethanesulfonate,,,CC[n+]1ccn(CCOC)c1.O=S(=O)([O-])C(F)(F)F,1-ethyl-3-(2-methoxyethyl)imidazolium trifluoromethanesulfonate,ABGawV,CC(C)O,propan-2-ol,AALcwx,CC[n+]1ccn(CCOC)c1,O=S(=O)([O-])C(F)(F)F,2,,,,239,False,CC[n+]1ccn(CCOC)c1.O=S(=O)([O-])C(F)(F)F,No changes
YqDhU,303.15,100.0,916.5,Fang et al. (2019b),Liquid,0.0997,1-ethyl-3-(2-methoxyethyl)imidazolium trifluoromethanesulfonate,,,CC[n+]1ccn(CCOC)c1.O=S(=O)([O-])C(F)(F)F,1-ethyl-3-(2-methoxyethyl)imidazolium trifluoromethanesulfonate,ABGawV,CC(C)O,propan-2-ol,AALcwx,CC[n+]1ccn(CCOC)c1,O=S(=O)([O-])C(F)(F)F,2,,,,240,False,CC[n+]1ccn(CCOC)c1.O=S(=O)([O-])C(F)(F)F,No changes
YqDhU,303.15,100.0,1017.8,Fang et al. (2019b),Liquid,0.2004,1-ethyl-3-(2-methoxyethyl)imidazolium trifluoromethanesulfonate,,,CC[n+]1ccn(CCOC)c1.O=S(=O)([O-])C(F)(F)F,1-ethyl-3-(2-methoxyethyl)imidazolium trifluoromethanesulfonate,ABGawV,CC(C)O,propan-2-ol,AALcwx,CC[n+]1ccn(CCOC)c1,O=S(=O)([O-])C(F)(F)F,2,,,,241,False,CC[n+]1ccn(CCOC)c1.O=S(=O)([O-])C(F)(F)F,No changes
YqDhU,303.15,100.0,1093.1,Fang et al. (2019b),Liquid,0.3004,1-ethyl-3-(2-methoxyethyl)imidazolium trifluoromethanesulfonate,,,CC[n+]1ccn(CCOC)c1.O=S(=O)([O-])C(F)(F)F,1-ethyl-3-(2-methoxyethyl)imidazolium trifluoromethanesulfonate,ABGawV,CC(C)O,propan-2-ol,AALcwx,CC[n+]1ccn(CCOC)c1,O=S(=O)([O-])C(F)(F)F,2,,,,242,False,CC[n+]1ccn(CCOC)c1.O=S(=O)([O-])C(F)(F)F,No changes
YqDhU,303.15,100.0,1151.0,Fang et al. (2019b),Liquid,0.4003,1-ethyl-3-(2-methoxyethyl)imidazolium trifluoromethanesulfonate,,,CC[n+]1ccn(CCOC)c1.O=S(=O)([O-])C(F)(F)F,1-ethyl-3-(2-methoxyethyl)imidazolium trifluoromethanesulfonate,ABGawV,CC(C)O,propan-2-ol,AALcwx,CC[n+]1ccn(CCOC)c1,O=S(=O)([O-])C(F)(F)F,2,,,,243,False,CC[n+]1ccn(CCOC)c1.O=S(=O)([O-])C(F)(F)F,No changes
YqDhU,303.15,100.0,1197.4,Fang et al. (2019b),Liquid,0.5004,1-ethyl-3-(2-methoxyethyl)imidazolium trifluoromethanesulfonate,,,CC[n+]1ccn(CCOC)c1.O=S(=O)([O-])C(F)(F)F,1-ethyl-3-(2-methoxyethyl)imidazolium trifluoromethanesulfonate,ABGawV,CC(C)O,propan-2-ol,AALcwx,CC[n+]1ccn(CCOC)c1,O=S(=O)([O-])C(F)(F)F,2,,,,244,False,CC[n+]1ccn(CCOC)c1.O=S(=O)([O-])C(F)(F)F,No changes
YqDhU,303.15,100.0,1235.6,Fang et al. (2019b),Liquid,0.6008,1-ethyl-3-(2-methoxyethyl)imidazolium trifluoromethanesulfonate,,,CC[n+]1ccn(CCOC)c1.O=S(=O)([O-])C(F)(F)F,1-ethyl-3-(2-methoxyethyl)imidazolium trifluoromethanesulfonate,ABGawV,CC(C)O,propan-2-ol,AALcwx,CC[n+]1ccn(CCOC)c1,O=S(=O)([O-])C(F)(F)F,2,,,,245,False,CC[n+]1ccn(CCOC)c1.O=S(=O)([O-])C(F)(F)F,No changes
YqDhU,303.15,100.0,1266.8,Fang et al. (2019b),Liquid,0.7,1-ethyl-3-(2-methoxyethyl)imidazolium trifluoromethanesulfonate,,,CC[n+]1ccn(CCOC)c1.O=S(=O)([O-])C(F)(F)F,1-ethyl-3-(2-methoxyethyl)imidazolium trifluoromethanesulfonate,ABGawV,CC(C)O,propan-2-ol,AALcwx,CC[n+]1ccn(CCOC)c1,O=S(=O)([O-])C(F)(F)F,2,,,,246,False,CC[n+]1ccn(CCOC)c1.O=S(=O)([O-])C(F)(F)F,No changes
YqDhU,303.15,100.0,1293.4,Fang et al. (2019b),Liquid,0.7998,1-ethyl-3-(2-methoxyethyl)imidazolium trifluoromethanesulfonate,,,CC[n+]1ccn(CCOC)c1.O=S(=O)([O-])C(F)(F)F,1-ethyl-3-(2-methoxyethyl)imidazolium trifluoromethanesulfonate,ABGawV,CC(C)O,propan-2-ol,AALcwx,CC[n+]1ccn(CCOC)c1,O=S(=O)([O-])C(F)(F)F,2,,,,247,False,CC[n+]1ccn(CCOC)c1.O=S(=O)([O-])C(F)(F)F,No changes
YqDhU,303.15,100.0,1316.5,Fang et al. (2019b),Liquid,0.9003,1-ethyl-3-(2-methoxyethyl)imidazolium trifluoromethanesulfonate,,,CC[n+]1ccn(CCOC)c1.O=S(=O)([O-])C(F)(F)F,1-ethyl-3-(2-methoxyethyl)imidazolium trifluoromethanesulfonate,ABGawV,CC(C)O,propan-2-ol,AALcwx,CC[n+]1ccn(CCOC)c1,O=S(=O)([O-])C(F)(F)F,2,,,,248,False,CC[n+]1ccn(CCOC)c1.O=S(=O)([O-])C(F)(F)F,No changes
YqDhU,303.15,100.0,1336.2,Fang et al. (2019b),Liquid,1.0,1-ethyl-3-(2-methoxyethyl)imidazolium trifluoromethanesulfonate,,,CC[n+]1ccn(CCOC)c1.O=S(=O)([O-])C(F)(F)F,1-ethyl-3-(2-methoxyethyl)imidazolium trifluoromethanesulfonate,ABGawV,CC(C)O,propan-2-ol,AALcwx,CC[n+]1ccn(CCOC)c1,O=S(=O)([O-])C(F)(F)F,2,,,,249,False,CC[n+]1ccn(CCOC)c1.O=S(=O)([O-])C(F)(F)F,No changes
YqDhU,308.15,100.0,772.3,Fang et al. (2019b),Liquid,0.0,1-ethyl-3-(2-methoxyethyl)imidazolium trifluoromethanesulfonate,,,CC[n+]1ccn(CCOC)c1.O=S(=O)([O-])C(F)(F)F,1-ethyl-3-(2-methoxyethyl)imidazolium trifluoromethanesulfonate,ABGawV,CC(C)O,propan-2-ol,AALcwx,CC[n+]1ccn(CCOC)c1,O=S(=O)([O-])C(F)(F)F,2,,,,250,False,CC[n+]1ccn(CCOC)c1.O=S(=O)([O-])C(F)(F)F,No changes
YqDhU,308.15,100.0,912.2,Fang et al. (2019b),Liquid,0.0997,1-ethyl-3-(2-methoxyethyl)imidazolium trifluoromethanesulfonate,,,CC[n+]1ccn(CCOC)c1.O=S(=O)([O-])C(F)(F)F,1-ethyl-3-(2-methoxyethyl)imidazolium trifluoromethanesulfonate,ABGawV,CC(C)O,propan-2-ol,AALcwx,CC[n+]1ccn(CCOC)c1,O=S(=O)([O-])C(F)(F)F,2,,,,251,False,CC[n+]1ccn(CCOC)c1.O=S(=O)([O-])C(F)(F)F,No changes
YqDhU,308.15,100.0,1013.5,Fang et al. (2019b),Liquid,0.2004,1-ethyl-3-(2-methoxyethyl)imidazolium trifluoromethanesulfonate,,,CC[n+]1ccn(CCOC)c1.O=S(=O)([O-])C(F)(F)F,1-ethyl-3-(2-methoxyethyl)imidazolium trifluoromethanesulfonate,ABGawV,CC(C)O,propan-2-ol,AALcwx,CC[n+]1ccn(CCOC)c1,O=S(=O)([O-])C(F)(F)F,2,,,,252,False,CC[n+]1ccn(CCOC)c1.O=S(=O)([O-])C(F)(F)F,No changes
YqDhU,308.15,100.0,1088.8,Fang et al. (2019b),Liquid,0.3004,1-ethyl-3-(2-methoxyethyl)imidazolium trifluoromethanesulfonate,,,CC[n+]1ccn(CCOC)c1.O=S(=O)([O-])C(F)(F)F,1-ethyl-3-(2-methoxyethyl)imidazolium trifluoromethanesulfonate,ABGawV,CC(C)O,propan-2-ol,AALcwx,CC[n+]1ccn(CCOC)c1,O=S(=O)([O-])C(F)(F)F,2,,,,253,False,CC[n+]1ccn(CCOC)c1.O=S(=O)([O-])C(F)(F)F,No changes
YqDhU,308.15,100.0,1146.7,Fang et al. (2019b),Liquid,0.4003,1-ethyl-3-(2-methoxyethyl)imidazolium trifluoromethanesulfonate,,,CC[n+]1ccn(CCOC)c1.O=S(=O)([O-])C(F)(F)F,1-ethyl-3-(2-methoxyethyl)imidazolium trifluoromethanesulfonate,ABGawV,CC(C)O,propan-2-ol,AALcwx,CC[n+]1ccn(CCOC)c1,O=S(=O)([O-])C(F)(F)F,2,,,,254,False,CC[n+]1ccn(CCOC)c1.O=S(=O)([O-])C(F)(F)F,No changes
YqDhU,308.15,100.0,1193.1,Fang et al. (2019b),Liquid,0.5004,1-ethyl-3-(2-methoxyethyl)imidazolium trifluoromethanesulfonate,,,CC[n+]1ccn(CCOC)c1.O=S(=O)([O-])C(F)(F)F,1-ethyl-3-(2-methoxyethyl)imidazolium trifluoromethanesulfonate,ABGawV,CC(C)O,propan-2-ol,AALcwx,CC[n+]1ccn(CCOC)c1,O=S(=O)([O-])C(F)(F)F,2,,,,255,False,CC[n+]1ccn(CCOC)c1.O=S(=O)([O-])C(F)(F)F,No changes
YqDhU,308.15,100.0,1231.3,Fang et al. (2019b),Liquid,0.6008,1-ethyl-3-(2-methoxyethyl)imidazolium trifluoromethanesulfonate,,,CC[n+]1ccn(CCOC)c1.O=S(=O)([O-])C(F)(F)F,1-ethyl-3-(2-methoxyethyl)imidazolium trifluoromethanesulfonate,ABGawV,CC(C)O,propan-2-ol,AALcwx,CC[n+]1ccn(CCOC)c1,O=S(=O)([O-])C(F)(F)F,2,,,,256,False,CC[n+]1ccn(CCOC)c1.O=S(=O)([O-])C(F)(F)F,No changes
YqDhU,308.15,100.0,1262.5,Fang et al. (2019b),Liquid,0.7,1-ethyl-3-(2-methoxyethyl)imidazolium trifluoromethanesulfonate,,,CC[n+]1ccn(CCOC)c1.O=S(=O)([O-])C(F)(F)F,1-ethyl-3-(2-methoxyethyl)imidazolium trifluoromethanesulfonate,ABGawV,CC(C)O,propan-2-ol,AALcwx,CC[n+]1ccn(CCOC)c1,O=S(=O)([O-])C(F)(F)F,2,,,,257,False,CC[n+]1ccn(CCOC)c1.O=S(=O)([O-])C(F)(F)F,No changes
YqDhU,308.15,100.0,1289.2,Fang et al. (2019b),Liquid,0.7998,1-ethyl-3-(2-methoxyethyl)imidazolium trifluoromethanesulfonate,,,CC[n+]1ccn(CCOC)c1.O=S(=O)([O-])C(F)(F)F,1-ethyl-3-(2-methoxyethyl)imidazolium trifluoromethanesulfonate,ABGawV,CC(C)O,propan-2-ol,AALcwx,CC[n+]1ccn(CCOC)c1,O=S(=O)([O-])C(F)(F)F,2,,,,258,False,CC[n+]1ccn(CCOC)c1.O=S(=O)([O-])C(F)(F)F,No changes
YqDhU,308.15,100.0,1312.3,Fang et al. (2019b),Liquid,0.9003,1-ethyl-3-(2-methoxyethyl)imidazolium trifluoromethanesulfonate,,,CC[n+]1ccn(CCOC)c1.O=S(=O)([O-])C(F)(F)F,1-ethyl-3-(2-methoxyethyl)imidazolium trifluoromethanesulfonate,ABGawV,CC(C)O,propan-2-ol,AALcwx,CC[n+]1ccn(CCOC)c1,O=S(=O)([O-])C(F)(F)F,2,,,,259,False,CC[n+]1ccn(CCOC)c1.O=S(=O)([O-])C(F)(F)F,No changes
YqDhU,308.15,100.0,1332.0,Fang et al. (2019b),Liquid,1.0,1-ethyl-3-(2-methoxyethyl)imidazolium trifluoromethanesulfonate,,,CC[n+]1ccn(CCOC)c1.O=S(=O)([O-])C(F)(F)F,1-ethyl-3-(2-methoxyethyl)imidazolium trifluoromethanesulfonate,ABGawV,CC(C)O,propan-2-ol,AALcwx,CC[n+]1ccn(CCOC)c1,O=S(=O)([O-])C(F)(F)F,2,,,,260,False,CC[n+]1ccn(CCOC)c1.O=S(=O)([O-])C(F)(F)F,No changes
YqDhU,313.15,100.0,767.8,Fang et al. (2019b),Liquid,0.0,1-ethyl-3-(2-methoxyethyl)imidazolium trifluoromethanesulfonate,,,CC[n+]1ccn(CCOC)c1.O=S(=O)([O-])C(F)(F)F,1-ethyl-3-(2-methoxyethyl)imidazolium trifluoromethanesulfonate,ABGawV,CC(C)O,propan-2-ol,AALcwx,CC[n+]1ccn(CCOC)c1,O=S(=O)([O-])C(F)(F)F,2,,,,261,False,CC[n+]1ccn(CCOC)c1.O=S(=O)([O-])C(F)(F)F,No changes
YqDhU,313.15,100.0,907.8,Fang et al. (2019b),Liquid,0.0997,1-ethyl-3-(2-methoxyethyl)imidazolium trifluoromethanesulfonate,,,CC[n+]1ccn(CCOC)c1.O=S(=O)([O-])C(F)(F)F,1-ethyl-3-(2-methoxyethyl)imidazolium trifluoromethanesulfonate,ABGawV,CC(C)O,propan-2-ol,AALcwx,CC[n+]1ccn(CCOC)c1,O=S(=O)([O-])C(F)(F)F,2,,,,262,False,CC[n+]1ccn(CCOC)c1.O=S(=O)([O-])C(F)(F)F,No changes
YqDhU,313.15,100.0,1009.2,Fang et al. (2019b),Liquid,0.2004,1-ethyl-3-(2-methoxyethyl)imidazolium trifluoromethanesulfonate,,,CC[n+]1ccn(CCOC)c1.O=S(=O)([O-])C(F)(F)F,1-ethyl-3-(2-methoxyethyl)imidazolium trifluoromethanesulfonate,ABGawV,CC(C)O,propan-2-ol,AALcwx,CC[n+]1ccn(CCOC)c1,O=S(=O)([O-])C(F)(F)F,2,,,,263,False,CC[n+]1ccn(CCOC)c1.O=S(=O)([O-])C(F)(F)F,No changes
YqDhU,313.15,100.0,1084.5,Fang et al. (2019b),Liquid,0.3004,1-ethyl-3-(2-methoxyethyl)imidazolium trifluoromethanesulfonate,,,CC[n+]1ccn(CCOC)c1.O=S(=O)([O-])C(F)(F)F,1-ethyl-3-(2-methoxyethyl)imidazolium trifluoromethanesulfonate,ABGawV,CC(C)O,propan-2-ol,AALcwx,CC[n+]1ccn(CCOC)c1,O=S(=O)([O-])C(F)(F)F,2,,,,264,False,CC[n+]1ccn(CCOC)c1.O=S(=O)([O-])C(F)(F)F,No changes
YqDhU,313.15,100.0,1142.5,Fang et al. (2019b),Liquid,0.4003,1-ethyl-3-(2-methoxyethyl)imidazolium trifluoromethanesulfonate,,,CC[n+]1ccn(CCOC)c1.O=S(=O)([O-])C(F)(F)F,1-ethyl-3-(2-methoxyethyl)imidazolium trifluoromethanesulfonate,ABGawV,CC(C)O,propan-2-ol,AALcwx,CC[n+]1ccn(CCOC)c1,O=S(=O)([O-])C(F)(F)F,2,,,,265,False,CC[n+]1ccn(CCOC)c1.O=S(=O)([O-])C(F)(F)F,No changes
YqDhU,313.15,100.0,1188.9,Fang et al. (2019b),Liquid,0.5004,1-ethyl-3-(2-methoxyethyl)imidazolium trifluoromethanesulfonate,,,CC[n+]1ccn(CCOC)c1.O=S(=O)([O-])C(F)(F)F,1-ethyl-3-(2-methoxyethyl)imidazolium trifluoromethanesulfonate,ABGawV,CC(C)O,propan-2-ol,AALcwx,CC[n+]1ccn(CCOC)c1,O=S(=O)([O-])C(F)(F)F,2,,,,266,False,CC[n+]1ccn(CCOC)c1.O=S(=O)([O-])C(F)(F)F,No changes
YqDhU,313.15,100.0,1227.1,Fang et al. (2019b),Liquid,0.6008,1-ethyl-3-(2-methoxyethyl)imidazolium trifluoromethanesulfonate,,,CC[n+]1ccn(CCOC)c1.O=S(=O)([O-])C(F)(F)F,1-ethyl-3-(2-methoxyethyl)imidazolium trifluoromethanesulfonate,ABGawV,CC(C)O,propan-2-ol,AALcwx,CC[n+]1ccn(CCOC)c1,O=S(=O)([O-])C(F)(F)F,2,,,,267,False,CC[n+]1ccn(CCOC)c1.O=S(=O)([O-])C(F)(F)F,No changes
YqDhU,313.15,100.0,1258.3,Fang et al. (2019b),Liquid,0.7,1-ethyl-3-(2-methoxyethyl)imidazolium trifluoromethanesulfonate,,,CC[n+]1ccn(CCOC)c1.O=S(=O)([O-])C(F)(F)F,1-ethyl-3-(2-methoxyethyl)imidazolium trifluoromethanesulfonate,ABGawV,CC(C)O,propan-2-ol,AALcwx,CC[n+]1ccn(CCOC)c1,O=S(=O)([O-])C(F)(F)F,2,,,,268,False,CC[n+]1ccn(CCOC)c1.O=S(=O)([O-])C(F)(F)F,No changes
YqDhU,313.15,100.0,1285.0,Fang et al. (2019b),Liquid,0.7998,1-ethyl-3-(2-methoxyethyl)imidazolium trifluoromethanesulfonate,,,CC[n+]1ccn(CCOC)c1.O=S(=O)([O-])C(F)(F)F,1-ethyl-3-(2-methoxyethyl)imidazolium trifluoromethanesulfonate,ABGawV,CC(C)O,propan-2-ol,AALcwx,CC[n+]1ccn(CCOC)c1,O=S(=O)([O-])C(F)(F)F,2,,,,269,False,CC[n+]1ccn(CCOC)c1.O=S(=O)([O-])C(F)(F)F,No changes
YqDhU,313.15,100.0,1308.1,Fang et al. (2019b),Liquid,0.9003,1-ethyl-3-(2-methoxyethyl)imidazolium trifluoromethanesulfonate,,,CC[n+]1ccn(CCOC)c1.O=S(=O)([O-])C(F)(F)F,1-ethyl-3-(2-methoxyethyl)imidazolium trifluoromethanesulfonate,ABGawV,CC(C)O,propan-2-ol,AALcwx,CC[n+]1ccn(CCOC)c1,O=S(=O)([O-])C(F)(F)F,2,,,,270,False,CC[n+]1ccn(CCOC)c1.O=S(=O)([O-])C(F)(F)F,No changes
YqDhU,313.15,100.0,1327.8,Fang et al. (2019b),Liquid,1.0,1-ethyl-3-(2-methoxyethyl)imidazolium trifluoromethanesulfonate,,,CC[n+]1ccn(CCOC)c1.O=S(=O)([O-])C(F)(F)F,1-ethyl-3-(2-methoxyethyl)imidazolium trifluoromethanesulfonate,ABGawV,CC(C)O,propan-2-ol,AALcwx,CC[n+]1ccn(CCOC)c1,O=S(=O)([O-])C(F)(F)F,2,,,,271,False,CC[n+]1ccn(CCOC)c1.O=S(=O)([O-])C(F)(F)F,No changes
YqDhU,318.15,100.0,763.3,Fang et al. (2019b),Liquid,0.0,1-ethyl-3-(2-methoxyethyl)imidazolium trifluoromethanesulfonate,,,CC[n+]1ccn(CCOC)c1.O=S(=O)([O-])C(F)(F)F,1-ethyl-3-(2-methoxyethyl)imidazolium trifluoromethanesulfonate,ABGawV,CC(C)O,propan-2-ol,AALcwx,CC[n+]1ccn(CCOC)c1,O=S(=O)([O-])C(F)(F)F,2,,,,272,False,CC[n+]1ccn(CCOC)c1.O=S(=O)([O-])C(F)(F)F,No changes
YqDhU,318.15,100.0,903.4,Fang et al. (2019b),Liquid,0.0997,1-ethyl-3-(2-methoxyethyl)imidazolium trifluoromethanesulfonate,,,CC[n+]1ccn(CCOC)c1.O=S(=O)([O-])C(F)(F)F,1-ethyl-3-(2-methoxyethyl)imidazolium trifluoromethanesulfonate,ABGawV,CC(C)O,propan-2-ol,AALcwx,CC[n+]1ccn(CCOC)c1,O=S(=O)([O-])C(F)(F)F,2,,,,273,False,CC[n+]1ccn(CCOC)c1.O=S(=O)([O-])C(F)(F)F,No changes
YqDhU,318.15,100.0,1004.9,Fang et al. (2019b),Liquid,0.2004,1-ethyl-3-(2-methoxyethyl)imidazolium trifluoromethanesulfonate,,,CC[n+]1ccn(CCOC)c1.O=S(=O)([O-])C(F)(F)F,1-ethyl-3-(2-methoxyethyl)imidazolium trifluoromethanesulfonate,ABGawV,CC(C)O,propan-2-ol,AALcwx,CC[n+]1ccn(CCOC)c1,O=S(=O)([O-])C(F)(F)F,2,,,,274,False,CC[n+]1ccn(CCOC)c1.O=S(=O)([O-])C(F)(F)F,No changes
YqDhU,318.15,100.0,1080.2,Fang et al. (2019b),Liquid,0.3004,1-ethyl-3-(2-methoxyethyl)imidazolium trifluoromethanesulfonate,,,CC[n+]1ccn(CCOC)c1.O=S(=O)([O-])C(F)(F)F,1-ethyl-3-(2-methoxyethyl)imidazolium trifluoromethanesulfonate,ABGawV,CC(C)O,propan-2-ol,AALcwx,CC[n+]1ccn(CCOC)c1,O=S(=O)([O-])C(F)(F)F,2,,,,275,False,CC[n+]1ccn(CCOC)c1.O=S(=O)([O-])C(F)(F)F,No changes
YqDhU,318.15,100.0,1138.2,Fang et al. (2019b),Liquid,0.4003,1-ethyl-3-(2-methoxyethyl)imidazolium trifluoromethanesulfonate,,,CC[n+]1ccn(CCOC)c1.O=S(=O)([O-])C(F)(F)F,1-ethyl-3-(2-methoxyethyl)imidazolium trifluoromethanesulfonate,ABGawV,CC(C)O,propan-2-ol,AALcwx,CC[n+]1ccn(CCOC)c1,O=S(=O)([O-])C(F)(F)F,2,,,,276,False,CC[n+]1ccn(CCOC)c1.O=S(=O)([O-])C(F)(F)F,No changes
YqDhU,318.15,100.0,1184.7,Fang et al. (2019b),Liquid,0.5004,1-ethyl-3-(2-methoxyethyl)imidazolium trifluoromethanesulfonate,,,CC[n+]1ccn(CCOC)c1.O=S(=O)([O-])C(F)(F)F,1-ethyl-3-(2-methoxyethyl)imidazolium trifluoromethanesulfonate,ABGawV,CC(C)O,propan-2-ol,AALcwx,CC[n+]1ccn(CCOC)c1,O=S(=O)([O-])C(F)(F)F,2,,,,277,False,CC[n+]1ccn(CCOC)c1.O=S(=O)([O-])C(F)(F)F,No changes
YqDhU,318.15,100.0,1222.9,Fang et al. (2019b),Liquid,0.6008,1-ethyl-3-(2-methoxyethyl)imidazolium trifluoromethanesulfonate,,,CC[n+]1ccn(CCOC)c1.O=S(=O)([O-])C(F)(F)F,1-ethyl-3-(2-methoxyethyl)imidazolium trifluoromethanesulfonate,ABGawV,CC(C)O,propan-2-ol,AALcwx,CC[n+]1ccn(CCOC)c1,O=S(=O)([O-])C(F)(F)F,2,,,,278,False,CC[n+]1ccn(CCOC)c1.O=S(=O)([O-])C(F)(F)F,No changes