setid,Temperature (K),Pressure (kPa),Density (kg/m3),reference,phases,Mole fraction,Mole fraction of compound name,Weight fraction,Weight fraction of compound name,IL_SMILES,IL_name,IL_ID,Solvent_SMILES,Solvent_name,Solvent_ID,IL_cation_SMILES,IL_anion_SMILES,IL_component_number,Mole fraction of solvent,IL_MW,Solvent_MW,Record_ID,Contains_Metal,Standardized_IL_SMILES,Changes
JSZmg,323.15,100.0,892.1,Belic et al. (2017),Liquid,0.0973,1-butyl-3-ethylimidazolium bromide,,,CCCC[n+]1ccn(CC)c1.[Br-],1-butyl-3-ethylimidazolium bromide,AAsrvt,CCO,ethanol,AAIsrh,CCCC[n+]1ccn(CC)c1,[Br-],2,,,,2077,False,CCCC[n+]1ccn(CC)c1.[Br-],No changes
JSZmg,323.15,100.0,983.4,Belic et al. (2017),Liquid,0.2004,1-butyl-3-ethylimidazolium bromide,,,CCCC[n+]1ccn(CC)c1.[Br-],1-butyl-3-ethylimidazolium bromide,AAsrvt,CCO,ethanol,AAIsrh,CCCC[n+]1ccn(CC)c1,[Br-],2,,,,2078,False,CCCC[n+]1ccn(CC)c1.[Br-],No changes
JSZmg,323.15,100.0,1048.1,Belic et al. (2017),Liquid,0.3021,1-butyl-3-ethylimidazolium bromide,,,CCCC[n+]1ccn(CC)c1.[Br-],1-butyl-3-ethylimidazolium bromide,AAsrvt,CCO,ethanol,AAIsrh,CCCC[n+]1ccn(CC)c1,[Br-],2,,,,2079,False,CCCC[n+]1ccn(CC)c1.[Br-],No changes
JSZmg,323.15,100.0,1096.0,Belic et al. (2017),Liquid,0.401,1-butyl-3-ethylimidazolium bromide,,,CCCC[n+]1ccn(CC)c1.[Br-],1-butyl-3-ethylimidazolium bromide,AAsrvt,CCO,ethanol,AAIsrh,CCCC[n+]1ccn(CC)c1,[Br-],2,,,,2080,False,CCCC[n+]1ccn(CC)c1.[Br-],No changes
JSZmg,323.15,100.0,1133.8,Belic et al. (2017),Liquid,0.5005,1-butyl-3-ethylimidazolium bromide,,,CCCC[n+]1ccn(CC)c1.[Br-],1-butyl-3-ethylimidazolium bromide,AAsrvt,CCO,ethanol,AAIsrh,CCCC[n+]1ccn(CC)c1,[Br-],2,,,,2081,False,CCCC[n+]1ccn(CC)c1.[Br-],No changes
JSZmg,323.15,100.0,1164.2,Belic et al. (2017),Liquid,0.5996,1-butyl-3-ethylimidazolium bromide,,,CCCC[n+]1ccn(CC)c1.[Br-],1-butyl-3-ethylimidazolium bromide,AAsrvt,CCO,ethanol,AAIsrh,CCCC[n+]1ccn(CC)c1,[Br-],2,,,,2082,False,CCCC[n+]1ccn(CC)c1.[Br-],No changes
JSZmg,323.15,100.0,1189.7,Belic et al. (2017),Liquid,0.7022,1-butyl-3-ethylimidazolium bromide,,,CCCC[n+]1ccn(CC)c1.[Br-],1-butyl-3-ethylimidazolium bromide,AAsrvt,CCO,ethanol,AAIsrh,CCCC[n+]1ccn(CC)c1,[Br-],2,,,,2083,False,CCCC[n+]1ccn(CC)c1.[Br-],No changes
JSZmg,323.15,100.0,1209.6,Belic et al. (2017),Liquid,0.7998,1-butyl-3-ethylimidazolium bromide,,,CCCC[n+]1ccn(CC)c1.[Br-],1-butyl-3-ethylimidazolium bromide,AAsrvt,CCO,ethanol,AAIsrh,CCCC[n+]1ccn(CC)c1,[Br-],2,,,,2084,False,CCCC[n+]1ccn(CC)c1.[Br-],No changes
JSZmg,323.15,100.0,1229.9,Belic et al. (2017),Liquid,0.92,1-butyl-3-ethylimidazolium bromide,,,CCCC[n+]1ccn(CC)c1.[Br-],1-butyl-3-ethylimidazolium bromide,AAsrvt,CCO,ethanol,AAIsrh,CCCC[n+]1ccn(CC)c1,[Br-],2,,,,2085,False,CCCC[n+]1ccn(CC)c1.[Br-],No changes
cXqwO,288.15,101.0,864.5,Rilo et al. (2012b),Liquid,0.0498,3-ethyl-1-methylimidazolium butyl sulfate,,,CCn1cc[n+](C)c1.CCCCOS(=O)(=O)[O-],3-ethyl-1-methylimidazolium butyl sulfate,AAyrXy,CCO,ethanol,AAIsrh,CCn1cc[n+](C)c1,CCCCOS(=O)(=O)[O-],2,,,,2086,False,CCn1cc[n+](C)c1.CCCCOS(=O)(=O)[O-],No changes
cXqwO,288.15,101.0,915.1,Rilo et al. (2012b),Liquid,0.0989,3-ethyl-1-methylimidazolium butyl sulfate,,,CCn1cc[n+](C)c1.CCCCOS(=O)(=O)[O-],3-ethyl-1-methylimidazolium butyl sulfate,AAyrXy,CCO,ethanol,AAIsrh,CCn1cc[n+](C)c1,CCCCOS(=O)(=O)[O-],2,,,,2087,False,CCn1cc[n+](C)c1.CCCCOS(=O)(=O)[O-],No changes
cXqwO,288.15,101.0,987.0,Rilo et al. (2012b),Liquid,0.1938,3-ethyl-1-methylimidazolium butyl sulfate,,,CCn1cc[n+](C)c1.CCCCOS(=O)(=O)[O-],3-ethyl-1-methylimidazolium butyl sulfate,AAyrXy,CCO,ethanol,AAIsrh,CCn1cc[n+](C)c1,CCCCOS(=O)(=O)[O-],2,,,,2088,False,CCn1cc[n+](C)c1.CCCCOS(=O)(=O)[O-],No changes
cXqwO,288.15,101.0,1037.4,Rilo et al. (2012b),Liquid,0.2904,3-ethyl-1-methylimidazolium butyl sulfate,,,CCn1cc[n+](C)c1.CCCCOS(=O)(=O)[O-],3-ethyl-1-methylimidazolium butyl sulfate,AAyrXy,CCO,ethanol,AAIsrh,CCn1cc[n+](C)c1,CCCCOS(=O)(=O)[O-],2,,,,2089,False,CCn1cc[n+](C)c1.CCCCOS(=O)(=O)[O-],No changes
cXqwO,288.15,101.0,1072.1,Rilo et al. (2012b),Liquid,0.3812,3-ethyl-1-methylimidazolium butyl sulfate,,,CCn1cc[n+](C)c1.CCCCOS(=O)(=O)[O-],3-ethyl-1-methylimidazolium butyl sulfate,AAyrXy,CCO,ethanol,AAIsrh,CCn1cc[n+](C)c1,CCCCOS(=O)(=O)[O-],2,,,,2090,False,CCn1cc[n+](C)c1.CCCCOS(=O)(=O)[O-],No changes
cXqwO,288.15,101.0,1098.2,Rilo et al. (2012b),Liquid,0.4691,3-ethyl-1-methylimidazolium butyl sulfate,,,CCn1cc[n+](C)c1.CCCCOS(=O)(=O)[O-],3-ethyl-1-methylimidazolium butyl sulfate,AAyrXy,CCO,ethanol,AAIsrh,CCn1cc[n+](C)c1,CCCCOS(=O)(=O)[O-],2,,,,2091,False,CCn1cc[n+](C)c1.CCCCOS(=O)(=O)[O-],No changes
cXqwO,288.15,101.0,1105.9,Rilo et al. (2012b),Liquid,0.4993,3-ethyl-1-methylimidazolium butyl sulfate,,,CCn1cc[n+](C)c1.CCCCOS(=O)(=O)[O-],3-ethyl-1-methylimidazolium butyl sulfate,AAyrXy,CCO,ethanol,AAIsrh,CCn1cc[n+](C)c1,CCCCOS(=O)(=O)[O-],2,,,,2092,False,CCn1cc[n+](C)c1.CCCCOS(=O)(=O)[O-],No changes
cXqwO,288.15,101.0,1122.0,Rilo et al. (2012b),Liquid,0.5699,3-ethyl-1-methylimidazolium butyl sulfate,,,CCn1cc[n+](C)c1.CCCCOS(=O)(=O)[O-],3-ethyl-1-methylimidazolium butyl sulfate,AAyrXy,CCO,ethanol,AAIsrh,CCn1cc[n+](C)c1,CCCCOS(=O)(=O)[O-],2,,,,2093,False,CCn1cc[n+](C)c1.CCCCOS(=O)(=O)[O-],No changes
cXqwO,288.15,101.0,1143.7,Rilo et al. (2012b),Liquid,0.6866,3-ethyl-1-methylimidazolium butyl sulfate,,,CCn1cc[n+](C)c1.CCCCOS(=O)(=O)[O-],3-ethyl-1-methylimidazolium butyl sulfate,AAyrXy,CCO,ethanol,AAIsrh,CCn1cc[n+](C)c1,CCCCOS(=O)(=O)[O-],2,,,,2094,False,CCn1cc[n+](C)c1.CCCCOS(=O)(=O)[O-],No changes
cXqwO,288.15,101.0,1158.4,Rilo et al. (2012b),Liquid,0.7858,3-ethyl-1-methylimidazolium butyl sulfate,,,CCn1cc[n+](C)c1.CCCCOS(=O)(=O)[O-],3-ethyl-1-methylimidazolium butyl sulfate,AAyrXy,CCO,ethanol,AAIsrh,CCn1cc[n+](C)c1,CCCCOS(=O)(=O)[O-],2,,,,2095,False,CCn1cc[n+](C)c1.CCCCOS(=O)(=O)[O-],No changes
cXqwO,288.15,101.0,1169.9,Rilo et al. (2012b),Liquid,0.8794,3-ethyl-1-methylimidazolium butyl sulfate,,,CCn1cc[n+](C)c1.CCCCOS(=O)(=O)[O-],3-ethyl-1-methylimidazolium butyl sulfate,AAyrXy,CCO,ethanol,AAIsrh,CCn1cc[n+](C)c1,CCCCOS(=O)(=O)[O-],2,,,,2096,False,CCn1cc[n+](C)c1.CCCCOS(=O)(=O)[O-],No changes
cXqwO,288.15,101.0,1182.5,Rilo et al. (2012b),Liquid,1.0,3-ethyl-1-methylimidazolium butyl sulfate,,,CCn1cc[n+](C)c1.CCCCOS(=O)(=O)[O-],3-ethyl-1-methylimidazolium butyl sulfate,AAyrXy,CCO,ethanol,AAIsrh,CCn1cc[n+](C)c1,CCCCOS(=O)(=O)[O-],2,,,,2097,False,CCn1cc[n+](C)c1.CCCCOS(=O)(=O)[O-],No changes
cXqwO,298.15,101.0,856.2,Rilo et al. (2012b),Liquid,0.0498,3-ethyl-1-methylimidazolium butyl sulfate,,,CCn1cc[n+](C)c1.CCCCOS(=O)(=O)[O-],3-ethyl-1-methylimidazolium butyl sulfate,AAyrXy,CCO,ethanol,AAIsrh,CCn1cc[n+](C)c1,CCCCOS(=O)(=O)[O-],2,,,,2098,False,CCn1cc[n+](C)c1.CCCCOS(=O)(=O)[O-],No changes
cXqwO,298.15,101.0,907.1,Rilo et al. (2012b),Liquid,0.0989,3-ethyl-1-methylimidazolium butyl sulfate,,,CCn1cc[n+](C)c1.CCCCOS(=O)(=O)[O-],3-ethyl-1-methylimidazolium butyl sulfate,AAyrXy,CCO,ethanol,AAIsrh,CCn1cc[n+](C)c1,CCCCOS(=O)(=O)[O-],2,,,,2099,False,CCn1cc[n+](C)c1.CCCCOS(=O)(=O)[O-],No changes
cXqwO,298.15,101.0,979.3,Rilo et al. (2012b),Liquid,0.1938,3-ethyl-1-methylimidazolium butyl sulfate,,,CCn1cc[n+](C)c1.CCCCOS(=O)(=O)[O-],3-ethyl-1-methylimidazolium butyl sulfate,AAyrXy,CCO,ethanol,AAIsrh,CCn1cc[n+](C)c1,CCCCOS(=O)(=O)[O-],2,,,,2100,False,CCn1cc[n+](C)c1.CCCCOS(=O)(=O)[O-],No changes
cXqwO,298.15,101.0,1030.0,Rilo et al. (2012b),Liquid,0.2904,3-ethyl-1-methylimidazolium butyl sulfate,,,CCn1cc[n+](C)c1.CCCCOS(=O)(=O)[O-],3-ethyl-1-methylimidazolium butyl sulfate,AAyrXy,CCO,ethanol,AAIsrh,CCn1cc[n+](C)c1,CCCCOS(=O)(=O)[O-],2,,,,2101,False,CCn1cc[n+](C)c1.CCCCOS(=O)(=O)[O-],No changes
cXqwO,298.15,101.0,1064.8,Rilo et al. (2012b),Liquid,0.3812,3-ethyl-1-methylimidazolium butyl sulfate,,,CCn1cc[n+](C)c1.CCCCOS(=O)(=O)[O-],3-ethyl-1-methylimidazolium butyl sulfate,AAyrXy,CCO,ethanol,AAIsrh,CCn1cc[n+](C)c1,CCCCOS(=O)(=O)[O-],2,,,,2102,False,CCn1cc[n+](C)c1.CCCCOS(=O)(=O)[O-],No changes
cXqwO,298.15,101.0,1091.0,Rilo et al. (2012b),Liquid,0.4691,3-ethyl-1-methylimidazolium butyl sulfate,,,CCn1cc[n+](C)c1.CCCCOS(=O)(=O)[O-],3-ethyl-1-methylimidazolium butyl sulfate,AAyrXy,CCO,ethanol,AAIsrh,CCn1cc[n+](C)c1,CCCCOS(=O)(=O)[O-],2,,,,2103,False,CCn1cc[n+](C)c1.CCCCOS(=O)(=O)[O-],No changes
cXqwO,298.15,101.0,1098.8,Rilo et al. (2012b),Liquid,0.4993,3-ethyl-1-methylimidazolium butyl sulfate,,,CCn1cc[n+](C)c1.CCCCOS(=O)(=O)[O-],3-ethyl-1-methylimidazolium butyl sulfate,AAyrXy,CCO,ethanol,AAIsrh,CCn1cc[n+](C)c1,CCCCOS(=O)(=O)[O-],2,,,,2104,False,CCn1cc[n+](C)c1.CCCCOS(=O)(=O)[O-],No changes
cXqwO,298.15,101.0,1114.9,Rilo et al. (2012b),Liquid,0.5699,3-ethyl-1-methylimidazolium butyl sulfate,,,CCn1cc[n+](C)c1.CCCCOS(=O)(=O)[O-],3-ethyl-1-methylimidazolium butyl sulfate,AAyrXy,CCO,ethanol,AAIsrh,CCn1cc[n+](C)c1,CCCCOS(=O)(=O)[O-],2,,,,2105,False,CCn1cc[n+](C)c1.CCCCOS(=O)(=O)[O-],No changes
cXqwO,298.15,101.0,1136.7,Rilo et al. (2012b),Liquid,0.6866,3-ethyl-1-methylimidazolium butyl sulfate,,,CCn1cc[n+](C)c1.CCCCOS(=O)(=O)[O-],3-ethyl-1-methylimidazolium butyl sulfate,AAyrXy,CCO,ethanol,AAIsrh,CCn1cc[n+](C)c1,CCCCOS(=O)(=O)[O-],2,,,,2106,False,CCn1cc[n+](C)c1.CCCCOS(=O)(=O)[O-],No changes
cXqwO,298.15,101.0,1151.6,Rilo et al. (2012b),Liquid,0.7858,3-ethyl-1-methylimidazolium butyl sulfate,,,CCn1cc[n+](C)c1.CCCCOS(=O)(=O)[O-],3-ethyl-1-methylimidazolium butyl sulfate,AAyrXy,CCO,ethanol,AAIsrh,CCn1cc[n+](C)c1,CCCCOS(=O)(=O)[O-],2,,,,2107,False,CCn1cc[n+](C)c1.CCCCOS(=O)(=O)[O-],No changes
cXqwO,298.15,101.0,1163.1,Rilo et al. (2012b),Liquid,0.8794,3-ethyl-1-methylimidazolium butyl sulfate,,,CCn1cc[n+](C)c1.CCCCOS(=O)(=O)[O-],3-ethyl-1-methylimidazolium butyl sulfate,AAyrXy,CCO,ethanol,AAIsrh,CCn1cc[n+](C)c1,CCCCOS(=O)(=O)[O-],2,,,,2108,False,CCn1cc[n+](C)c1.CCCCOS(=O)(=O)[O-],No changes
cXqwO,298.15,101.0,1175.7,Rilo et al. (2012b),Liquid,1.0,3-ethyl-1-methylimidazolium butyl sulfate,,,CCn1cc[n+](C)c1.CCCCOS(=O)(=O)[O-],3-ethyl-1-methylimidazolium butyl sulfate,AAyrXy,CCO,ethanol,AAIsrh,CCn1cc[n+](C)c1,CCCCOS(=O)(=O)[O-],2,,,,2109,False,CCn1cc[n+](C)c1.CCCCOS(=O)(=O)[O-],No changes
cXqwO,308.15,101.0,847.9,Rilo et al. (2012b),Liquid,0.0498,3-ethyl-1-methylimidazolium butyl sulfate,,,CCn1cc[n+](C)c1.CCCCOS(=O)(=O)[O-],3-ethyl-1-methylimidazolium butyl sulfate,AAyrXy,CCO,ethanol,AAIsrh,CCn1cc[n+](C)c1,CCCCOS(=O)(=O)[O-],2,,,,2110,False,CCn1cc[n+](C)c1.CCCCOS(=O)(=O)[O-],No changes
cXqwO,308.15,101.0,898.9,Rilo et al. (2012b),Liquid,0.0989,3-ethyl-1-methylimidazolium butyl sulfate,,,CCn1cc[n+](C)c1.CCCCOS(=O)(=O)[O-],3-ethyl-1-methylimidazolium butyl sulfate,AAyrXy,CCO,ethanol,AAIsrh,CCn1cc[n+](C)c1,CCCCOS(=O)(=O)[O-],2,,,,2111,False,CCn1cc[n+](C)c1.CCCCOS(=O)(=O)[O-],No changes
cXqwO,308.15,101.0,971.6,Rilo et al. (2012b),Liquid,0.1938,3-ethyl-1-methylimidazolium butyl sulfate,,,CCn1cc[n+](C)c1.CCCCOS(=O)(=O)[O-],3-ethyl-1-methylimidazolium butyl sulfate,AAyrXy,CCO,ethanol,AAIsrh,CCn1cc[n+](C)c1,CCCCOS(=O)(=O)[O-],2,,,,2112,False,CCn1cc[n+](C)c1.CCCCOS(=O)(=O)[O-],No changes
cXqwO,308.15,101.0,1022.4,Rilo et al. (2012b),Liquid,0.2904,3-ethyl-1-methylimidazolium butyl sulfate,,,CCn1cc[n+](C)c1.CCCCOS(=O)(=O)[O-],3-ethyl-1-methylimidazolium butyl sulfate,AAyrXy,CCO,ethanol,AAIsrh,CCn1cc[n+](C)c1,CCCCOS(=O)(=O)[O-],2,,,,2113,False,CCn1cc[n+](C)c1.CCCCOS(=O)(=O)[O-],No changes
cXqwO,308.15,101.0,1057.6,Rilo et al. (2012b),Liquid,0.3812,3-ethyl-1-methylimidazolium butyl sulfate,,,CCn1cc[n+](C)c1.CCCCOS(=O)(=O)[O-],3-ethyl-1-methylimidazolium butyl sulfate,AAyrXy,CCO,ethanol,AAIsrh,CCn1cc[n+](C)c1,CCCCOS(=O)(=O)[O-],2,,,,2114,False,CCn1cc[n+](C)c1.CCCCOS(=O)(=O)[O-],No changes
cXqwO,308.15,101.0,1083.9,Rilo et al. (2012b),Liquid,0.4691,3-ethyl-1-methylimidazolium butyl sulfate,,,CCn1cc[n+](C)c1.CCCCOS(=O)(=O)[O-],3-ethyl-1-methylimidazolium butyl sulfate,AAyrXy,CCO,ethanol,AAIsrh,CCn1cc[n+](C)c1,CCCCOS(=O)(=O)[O-],2,,,,2115,False,CCn1cc[n+](C)c1.CCCCOS(=O)(=O)[O-],No changes
cXqwO,308.15,101.0,1091.1,Rilo et al. (2012b),Liquid,0.4993,3-ethyl-1-methylimidazolium butyl sulfate,,,CCn1cc[n+](C)c1.CCCCOS(=O)(=O)[O-],3-ethyl-1-methylimidazolium butyl sulfate,AAyrXy,CCO,ethanol,AAIsrh,CCn1cc[n+](C)c1,CCCCOS(=O)(=O)[O-],2,,,,2116,False,CCn1cc[n+](C)c1.CCCCOS(=O)(=O)[O-],No changes
cXqwO,308.15,101.0,1107.9,Rilo et al. (2012b),Liquid,0.5699,3-ethyl-1-methylimidazolium butyl sulfate,,,CCn1cc[n+](C)c1.CCCCOS(=O)(=O)[O-],3-ethyl-1-methylimidazolium butyl sulfate,AAyrXy,CCO,ethanol,AAIsrh,CCn1cc[n+](C)c1,CCCCOS(=O)(=O)[O-],2,,,,2117,False,CCn1cc[n+](C)c1.CCCCOS(=O)(=O)[O-],No changes
cXqwO,308.15,101.0,1129.7,Rilo et al. (2012b),Liquid,0.6866,3-ethyl-1-methylimidazolium butyl sulfate,,,CCn1cc[n+](C)c1.CCCCOS(=O)(=O)[O-],3-ethyl-1-methylimidazolium butyl sulfate,AAyrXy,CCO,ethanol,AAIsrh,CCn1cc[n+](C)c1,CCCCOS(=O)(=O)[O-],2,,,,2118,False,CCn1cc[n+](C)c1.CCCCOS(=O)(=O)[O-],No changes
cXqwO,308.15,101.0,1144.7,Rilo et al. (2012b),Liquid,0.7858,3-ethyl-1-methylimidazolium butyl sulfate,,,CCn1cc[n+](C)c1.CCCCOS(=O)(=O)[O-],3-ethyl-1-methylimidazolium butyl sulfate,AAyrXy,CCO,ethanol,AAIsrh,CCn1cc[n+](C)c1,CCCCOS(=O)(=O)[O-],2,,,,2119,False,CCn1cc[n+](C)c1.CCCCOS(=O)(=O)[O-],No changes
cXqwO,308.15,101.0,1156.3,Rilo et al. (2012b),Liquid,0.8794,3-ethyl-1-methylimidazolium butyl sulfate,,,CCn1cc[n+](C)c1.CCCCOS(=O)(=O)[O-],3-ethyl-1-methylimidazolium butyl sulfate,AAyrXy,CCO,ethanol,AAIsrh,CCn1cc[n+](C)c1,CCCCOS(=O)(=O)[O-],2,,,,2120,False,CCn1cc[n+](C)c1.CCCCOS(=O)(=O)[O-],No changes
cXqwO,308.15,101.0,1169.0,Rilo et al. (2012b),Liquid,1.0,3-ethyl-1-methylimidazolium butyl sulfate,,,CCn1cc[n+](C)c1.CCCCOS(=O)(=O)[O-],3-ethyl-1-methylimidazolium butyl sulfate,AAyrXy,CCO,ethanol,AAIsrh,CCn1cc[n+](C)c1,CCCCOS(=O)(=O)[O-],2,,,,2121,False,CCn1cc[n+](C)c1.CCCCOS(=O)(=O)[O-],No changes
cXqwO,318.15,101.0,839.5,Rilo et al. (2012b),Liquid,0.0498,3-ethyl-1-methylimidazolium butyl sulfate,,,CCn1cc[n+](C)c1.CCCCOS(=O)(=O)[O-],3-ethyl-1-methylimidazolium butyl sulfate,AAyrXy,CCO,ethanol,AAIsrh,CCn1cc[n+](C)c1,CCCCOS(=O)(=O)[O-],2,,,,2122,False,CCn1cc[n+](C)c1.CCCCOS(=O)(=O)[O-],No changes
cXqwO,318.15,101.0,890.9,Rilo et al. (2012b),Liquid,0.0989,3-ethyl-1-methylimidazolium butyl sulfate,,,CCn1cc[n+](C)c1.CCCCOS(=O)(=O)[O-],3-ethyl-1-methylimidazolium butyl sulfate,AAyrXy,CCO,ethanol,AAIsrh,CCn1cc[n+](C)c1,CCCCOS(=O)(=O)[O-],2,,,,2123,False,CCn1cc[n+](C)c1.CCCCOS(=O)(=O)[O-],No changes
cXqwO,318.15,101.0,963.8,Rilo et al. (2012b),Liquid,0.1938,3-ethyl-1-methylimidazolium butyl sulfate,,,CCn1cc[n+](C)c1.CCCCOS(=O)(=O)[O-],3-ethyl-1-methylimidazolium butyl sulfate,AAyrXy,CCO,ethanol,AAIsrh,CCn1cc[n+](C)c1,CCCCOS(=O)(=O)[O-],2,,,,2124,False,CCn1cc[n+](C)c1.CCCCOS(=O)(=O)[O-],No changes
cXqwO,318.15,101.0,1014.8,Rilo et al. (2012b),Liquid,0.2904,3-ethyl-1-methylimidazolium butyl sulfate,,,CCn1cc[n+](C)c1.CCCCOS(=O)(=O)[O-],3-ethyl-1-methylimidazolium butyl sulfate,AAyrXy,CCO,ethanol,AAIsrh,CCn1cc[n+](C)c1,CCCCOS(=O)(=O)[O-],2,,,,2125,False,CCn1cc[n+](C)c1.CCCCOS(=O)(=O)[O-],No changes
cXqwO,318.15,101.0,1050.4,Rilo et al. (2012b),Liquid,0.3812,3-ethyl-1-methylimidazolium butyl sulfate,,,CCn1cc[n+](C)c1.CCCCOS(=O)(=O)[O-],3-ethyl-1-methylimidazolium butyl sulfate,AAyrXy,CCO,ethanol,AAIsrh,CCn1cc[n+](C)c1,CCCCOS(=O)(=O)[O-],2,,,,2126,False,CCn1cc[n+](C)c1.CCCCOS(=O)(=O)[O-],No changes
cXqwO,318.15,101.0,1076.9,Rilo et al. (2012b),Liquid,0.4691,3-ethyl-1-methylimidazolium butyl sulfate,,,CCn1cc[n+](C)c1.CCCCOS(=O)(=O)[O-],3-ethyl-1-methylimidazolium butyl sulfate,AAyrXy,CCO,ethanol,AAIsrh,CCn1cc[n+](C)c1,CCCCOS(=O)(=O)[O-],2,,,,2127,False,CCn1cc[n+](C)c1.CCCCOS(=O)(=O)[O-],No changes
cXqwO,318.15,101.0,1083.7,Rilo et al. (2012b),Liquid,0.4993,3-ethyl-1-methylimidazolium butyl sulfate,,,CCn1cc[n+](C)c1.CCCCOS(=O)(=O)[O-],3-ethyl-1-methylimidazolium butyl sulfate,AAyrXy,CCO,ethanol,AAIsrh,CCn1cc[n+](C)c1,CCCCOS(=O)(=O)[O-],2,,,,2128,False,CCn1cc[n+](C)c1.CCCCOS(=O)(=O)[O-],No changes
cXqwO,318.15,101.0,1101.0,Rilo et al. (2012b),Liquid,0.5699,3-ethyl-1-methylimidazolium butyl sulfate,,,CCn1cc[n+](C)c1.CCCCOS(=O)(=O)[O-],3-ethyl-1-methylimidazolium butyl sulfate,AAyrXy,CCO,ethanol,AAIsrh,CCn1cc[n+](C)c1,CCCCOS(=O)(=O)[O-],2,,,,2129,False,CCn1cc[n+](C)c1.CCCCOS(=O)(=O)[O-],No changes
cXqwO,318.15,101.0,1122.8,Rilo et al. (2012b),Liquid,0.6866,3-ethyl-1-methylimidazolium butyl sulfate,,,CCn1cc[n+](C)c1.CCCCOS(=O)(=O)[O-],3-ethyl-1-methylimidazolium butyl sulfate,AAyrXy,CCO,ethanol,AAIsrh,CCn1cc[n+](C)c1,CCCCOS(=O)(=O)[O-],2,,,,2130,False,CCn1cc[n+](C)c1.CCCCOS(=O)(=O)[O-],No changes
cXqwO,318.15,101.0,1138.0,Rilo et al. (2012b),Liquid,0.7858,3-ethyl-1-methylimidazolium butyl sulfate,,,CCn1cc[n+](C)c1.CCCCOS(=O)(=O)[O-],3-ethyl-1-methylimidazolium butyl sulfate,AAyrXy,CCO,ethanol,AAIsrh,CCn1cc[n+](C)c1,CCCCOS(=O)(=O)[O-],2,,,,2131,False,CCn1cc[n+](C)c1.CCCCOS(=O)(=O)[O-],No changes
cXqwO,318.15,101.0,1149.6,Rilo et al. (2012b),Liquid,0.8794,3-ethyl-1-methylimidazolium butyl sulfate,,,CCn1cc[n+](C)c1.CCCCOS(=O)(=O)[O-],3-ethyl-1-methylimidazolium butyl sulfate,AAyrXy,CCO,ethanol,AAIsrh,CCn1cc[n+](C)c1,CCCCOS(=O)(=O)[O-],2,,,,2132,False,CCn1cc[n+](C)c1.CCCCOS(=O)(=O)[O-],No changes
cXqwO,318.15,101.0,1162.4,Rilo et al. (2012b),Liquid,1.0,3-ethyl-1-methylimidazolium butyl sulfate,,,CCn1cc[n+](C)c1.CCCCOS(=O)(=O)[O-],3-ethyl-1-methylimidazolium butyl sulfate,AAyrXy,CCO,ethanol,AAIsrh,CCn1cc[n+](C)c1,CCCCOS(=O)(=O)[O-],2,,,,2133,False,CCn1cc[n+](C)c1.CCCCOS(=O)(=O)[O-],No changes
IlWGD,298.0,100.0,1437.0,Yoshimura et al. (2021),Liquid,1.0,ethanol,,,CCCC[n+]1ccn(C)c1.O=S(=O)([N-]S(=O)(=O)C(F)(F)F)C(F)(F)F,1-butyl-3-methylimidazolium bis(trifluoromethylsulfonyl)imide,ABchwx,CCO,ethanol,AAIsrh,CCCC[n+]1ccn(C)c1,O=S(=O)([N-]S(=O)(=O)C(F)(F)F)C(F)(F)F,2,0.0,,,2134,False,CCCC[n+]1ccn(C)c1.O=S(=O)([N-]S(=O)(=O)C(F)(F)F)C(F)(F)F,No changes
IlWGD,298.0,100.0,1422.3,Yoshimura et al. (2021),Liquid,0.8987,ethanol,,,CCCC[n+]1ccn(C)c1.O=S(=O)([N-]S(=O)(=O)C(F)(F)F)C(F)(F)F,1-butyl-3-methylimidazolium bis(trifluoromethylsulfonyl)imide,ABchwx,CCO,ethanol,AAIsrh,CCCC[n+]1ccn(C)c1,O=S(=O)([N-]S(=O)(=O)C(F)(F)F)C(F)(F)F,2,0.1013,,,2135,False,CCCC[n+]1ccn(C)c1.O=S(=O)([N-]S(=O)(=O)C(F)(F)F)C(F)(F)F,No changes
IlWGD,298.0,100.0,1405.7,Yoshimura et al. (2021),Liquid,0.8001,ethanol,,,CCCC[n+]1ccn(C)c1.O=S(=O)([N-]S(=O)(=O)C(F)(F)F)C(F)(F)F,1-butyl-3-methylimidazolium bis(trifluoromethylsulfonyl)imide,ABchwx,CCO,ethanol,AAIsrh,CCCC[n+]1ccn(C)c1,O=S(=O)([N-]S(=O)(=O)C(F)(F)F)C(F)(F)F,2,0.1999,,,2136,False,CCCC[n+]1ccn(C)c1.O=S(=O)([N-]S(=O)(=O)C(F)(F)F)C(F)(F)F,No changes
IlWGD,298.0,100.0,1385.2,Yoshimura et al. (2021),Liquid,0.6978,ethanol,,,CCCC[n+]1ccn(C)c1.O=S(=O)([N-]S(=O)(=O)C(F)(F)F)C(F)(F)F,1-butyl-3-methylimidazolium bis(trifluoromethylsulfonyl)imide,ABchwx,CCO,ethanol,AAIsrh,CCCC[n+]1ccn(C)c1,O=S(=O)([N-]S(=O)(=O)C(F)(F)F)C(F)(F)F,2,0.3022,,,2137,False,CCCC[n+]1ccn(C)c1.O=S(=O)([N-]S(=O)(=O)C(F)(F)F)C(F)(F)F,No changes
IlWGD,298.0,100.0,1360.6,Yoshimura et al. (2021),Liquid,0.5996,ethanol,,,CCCC[n+]1ccn(C)c1.O=S(=O)([N-]S(=O)(=O)C(F)(F)F)C(F)(F)F,1-butyl-3-methylimidazolium bis(trifluoromethylsulfonyl)imide,ABchwx,CCO,ethanol,AAIsrh,CCCC[n+]1ccn(C)c1,O=S(=O)([N-]S(=O)(=O)C(F)(F)F)C(F)(F)F,2,0.4004,,,2138,False,CCCC[n+]1ccn(C)c1.O=S(=O)([N-]S(=O)(=O)C(F)(F)F)C(F)(F)F,No changes
IlWGD,298.0,100.0,1323.3,Yoshimura et al. (2021),Liquid,0.4836,ethanol,,,CCCC[n+]1ccn(C)c1.O=S(=O)([N-]S(=O)(=O)C(F)(F)F)C(F)(F)F,1-butyl-3-methylimidazolium bis(trifluoromethylsulfonyl)imide,ABchwx,CCO,ethanol,AAIsrh,CCCC[n+]1ccn(C)c1,O=S(=O)([N-]S(=O)(=O)C(F)(F)F)C(F)(F)F,2,0.5164,,,2139,False,CCCC[n+]1ccn(C)c1.O=S(=O)([N-]S(=O)(=O)C(F)(F)F)C(F)(F)F,No changes
IlWGD,298.0,100.0,1286.6,Yoshimura et al. (2021),Liquid,0.397,ethanol,,,CCCC[n+]1ccn(C)c1.O=S(=O)([N-]S(=O)(=O)C(F)(F)F)C(F)(F)F,1-butyl-3-methylimidazolium bis(trifluoromethylsulfonyl)imide,ABchwx,CCO,ethanol,AAIsrh,CCCC[n+]1ccn(C)c1,O=S(=O)([N-]S(=O)(=O)C(F)(F)F)C(F)(F)F,2,0.603,,,2140,False,CCCC[n+]1ccn(C)c1.O=S(=O)([N-]S(=O)(=O)C(F)(F)F)C(F)(F)F,No changes