setid,Temperature (K),Pressure (kPa),Density (kg/m3),reference,phases,Mole fraction,Mole fraction of compound name,Weight fraction,Weight fraction of compound name,IL_SMILES,IL_name,IL_ID,Solvent_SMILES,Solvent_name,Solvent_ID,IL_cation_SMILES,IL_anion_SMILES,IL_component_number,Mole fraction of solvent,IL_MW,Solvent_MW,Record_ID,Contains_Metal,Standardized_IL_SMILES,Changes
RTMou,308.15,101.0,1289.82,Vercher et al. (2011b),Liquid,0.7019,1-ethyl-3-methylimidazolium trifluoromethanesulfonate,,,CC[n+]1ccn(C)c1.O=S(=O)([O-])C(F)(F)F,1-ethyl-3-methylimidazolium trifluoromethanesulfonate,AAyCVz,CC(C)O,propan-2-ol,AALcwx,CC[n+]1ccn(C)c1,O=S(=O)([O-])C(F)(F)F,2,,,,1008,False,CC[n+]1ccn(C)c1.O=S(=O)([O-])C(F)(F)F,No changes
RTMou,308.15,101.0,1321.8,Vercher et al. (2011b),Liquid,0.7987,1-ethyl-3-methylimidazolium trifluoromethanesulfonate,,,CC[n+]1ccn(C)c1.O=S(=O)([O-])C(F)(F)F,1-ethyl-3-methylimidazolium trifluoromethanesulfonate,AAyCVz,CC(C)O,propan-2-ol,AALcwx,CC[n+]1ccn(C)c1,O=S(=O)([O-])C(F)(F)F,2,,,,1009,False,CC[n+]1ccn(C)c1.O=S(=O)([O-])C(F)(F)F,No changes
RTMou,308.15,101.0,1337.6,Vercher et al. (2011b),Liquid,0.8519,1-ethyl-3-methylimidazolium trifluoromethanesulfonate,,,CC[n+]1ccn(C)c1.O=S(=O)([O-])C(F)(F)F,1-ethyl-3-methylimidazolium trifluoromethanesulfonate,AAyCVz,CC(C)O,propan-2-ol,AALcwx,CC[n+]1ccn(C)c1,O=S(=O)([O-])C(F)(F)F,2,,,,1010,False,CC[n+]1ccn(C)c1.O=S(=O)([O-])C(F)(F)F,No changes
RTMou,308.15,101.0,1350.7,Vercher et al. (2011b),Liquid,0.8989,1-ethyl-3-methylimidazolium trifluoromethanesulfonate,,,CC[n+]1ccn(C)c1.O=S(=O)([O-])C(F)(F)F,1-ethyl-3-methylimidazolium trifluoromethanesulfonate,AAyCVz,CC(C)O,propan-2-ol,AALcwx,CC[n+]1ccn(C)c1,O=S(=O)([O-])C(F)(F)F,2,,,,1011,False,CC[n+]1ccn(C)c1.O=S(=O)([O-])C(F)(F)F,No changes
RTMou,308.15,101.0,1363.1,Vercher et al. (2011b),Liquid,0.9462,1-ethyl-3-methylimidazolium trifluoromethanesulfonate,,,CC[n+]1ccn(C)c1.O=S(=O)([O-])C(F)(F)F,1-ethyl-3-methylimidazolium trifluoromethanesulfonate,AAyCVz,CC(C)O,propan-2-ol,AALcwx,CC[n+]1ccn(C)c1,O=S(=O)([O-])C(F)(F)F,2,,,,1012,False,CC[n+]1ccn(C)c1.O=S(=O)([O-])C(F)(F)F,No changes
RTMou,318.15,101.0,834.95,Vercher et al. (2011b),Liquid,0.0499,1-ethyl-3-methylimidazolium trifluoromethanesulfonate,,,CC[n+]1ccn(C)c1.O=S(=O)([O-])C(F)(F)F,1-ethyl-3-methylimidazolium trifluoromethanesulfonate,AAyCVz,CC(C)O,propan-2-ol,AALcwx,CC[n+]1ccn(C)c1,O=S(=O)([O-])C(F)(F)F,2,,,,1013,False,CC[n+]1ccn(C)c1.O=S(=O)([O-])C(F)(F)F,No changes
RTMou,318.15,101.0,895.92,Vercher et al. (2011b),Liquid,0.0996,1-ethyl-3-methylimidazolium trifluoromethanesulfonate,,,CC[n+]1ccn(C)c1.O=S(=O)([O-])C(F)(F)F,1-ethyl-3-methylimidazolium trifluoromethanesulfonate,AAyCVz,CC(C)O,propan-2-ol,AALcwx,CC[n+]1ccn(C)c1,O=S(=O)([O-])C(F)(F)F,2,,,,1014,False,CC[n+]1ccn(C)c1.O=S(=O)([O-])C(F)(F)F,No changes
RTMou,318.15,101.0,950.21,Vercher et al. (2011b),Liquid,0.15,1-ethyl-3-methylimidazolium trifluoromethanesulfonate,,,CC[n+]1ccn(C)c1.O=S(=O)([O-])C(F)(F)F,1-ethyl-3-methylimidazolium trifluoromethanesulfonate,AAyCVz,CC(C)O,propan-2-ol,AALcwx,CC[n+]1ccn(C)c1,O=S(=O)([O-])C(F)(F)F,2,,,,1015,False,CC[n+]1ccn(C)c1.O=S(=O)([O-])C(F)(F)F,No changes
RTMou,318.15,101.0,998.06,Vercher et al. (2011b),Liquid,0.2001,1-ethyl-3-methylimidazolium trifluoromethanesulfonate,,,CC[n+]1ccn(C)c1.O=S(=O)([O-])C(F)(F)F,1-ethyl-3-methylimidazolium trifluoromethanesulfonate,AAyCVz,CC(C)O,propan-2-ol,AALcwx,CC[n+]1ccn(C)c1,O=S(=O)([O-])C(F)(F)F,2,,,,1016,False,CC[n+]1ccn(C)c1.O=S(=O)([O-])C(F)(F)F,No changes
RTMou,318.15,101.0,1077.77,Vercher et al. (2011b),Liquid,0.2994,1-ethyl-3-methylimidazolium trifluoromethanesulfonate,,,CC[n+]1ccn(C)c1.O=S(=O)([O-])C(F)(F)F,1-ethyl-3-methylimidazolium trifluoromethanesulfonate,AAyCVz,CC(C)O,propan-2-ol,AALcwx,CC[n+]1ccn(C)c1,O=S(=O)([O-])C(F)(F)F,2,,,,1017,False,CC[n+]1ccn(C)c1.O=S(=O)([O-])C(F)(F)F,No changes
RTMou,318.15,101.0,1143.67,Vercher et al. (2011b),Liquid,0.4004,1-ethyl-3-methylimidazolium trifluoromethanesulfonate,,,CC[n+]1ccn(C)c1.O=S(=O)([O-])C(F)(F)F,1-ethyl-3-methylimidazolium trifluoromethanesulfonate,AAyCVz,CC(C)O,propan-2-ol,AALcwx,CC[n+]1ccn(C)c1,O=S(=O)([O-])C(F)(F)F,2,,,,1018,False,CC[n+]1ccn(C)c1.O=S(=O)([O-])C(F)(F)F,No changes
RTMou,318.15,101.0,1197.63,Vercher et al. (2011b),Liquid,0.4997,1-ethyl-3-methylimidazolium trifluoromethanesulfonate,,,CC[n+]1ccn(C)c1.O=S(=O)([O-])C(F)(F)F,1-ethyl-3-methylimidazolium trifluoromethanesulfonate,AAyCVz,CC(C)O,propan-2-ol,AALcwx,CC[n+]1ccn(C)c1,O=S(=O)([O-])C(F)(F)F,2,,,,1019,False,CC[n+]1ccn(C)c1.O=S(=O)([O-])C(F)(F)F,No changes
RTMou,318.15,101.0,1242.91,Vercher et al. (2011b),Liquid,0.5999,1-ethyl-3-methylimidazolium trifluoromethanesulfonate,,,CC[n+]1ccn(C)c1.O=S(=O)([O-])C(F)(F)F,1-ethyl-3-methylimidazolium trifluoromethanesulfonate,AAyCVz,CC(C)O,propan-2-ol,AALcwx,CC[n+]1ccn(C)c1,O=S(=O)([O-])C(F)(F)F,2,,,,1020,False,CC[n+]1ccn(C)c1.O=S(=O)([O-])C(F)(F)F,No changes
RTMou,318.15,101.0,1281.48,Vercher et al. (2011b),Liquid,0.7019,1-ethyl-3-methylimidazolium trifluoromethanesulfonate,,,CC[n+]1ccn(C)c1.O=S(=O)([O-])C(F)(F)F,1-ethyl-3-methylimidazolium trifluoromethanesulfonate,AAyCVz,CC(C)O,propan-2-ol,AALcwx,CC[n+]1ccn(C)c1,O=S(=O)([O-])C(F)(F)F,2,,,,1021,False,CC[n+]1ccn(C)c1.O=S(=O)([O-])C(F)(F)F,No changes
RTMou,318.15,101.0,1313.5,Vercher et al. (2011b),Liquid,0.7987,1-ethyl-3-methylimidazolium trifluoromethanesulfonate,,,CC[n+]1ccn(C)c1.O=S(=O)([O-])C(F)(F)F,1-ethyl-3-methylimidazolium trifluoromethanesulfonate,AAyCVz,CC(C)O,propan-2-ol,AALcwx,CC[n+]1ccn(C)c1,O=S(=O)([O-])C(F)(F)F,2,,,,1022,False,CC[n+]1ccn(C)c1.O=S(=O)([O-])C(F)(F)F,No changes
RTMou,318.15,101.0,1329.3,Vercher et al. (2011b),Liquid,0.8519,1-ethyl-3-methylimidazolium trifluoromethanesulfonate,,,CC[n+]1ccn(C)c1.O=S(=O)([O-])C(F)(F)F,1-ethyl-3-methylimidazolium trifluoromethanesulfonate,AAyCVz,CC(C)O,propan-2-ol,AALcwx,CC[n+]1ccn(C)c1,O=S(=O)([O-])C(F)(F)F,2,,,,1023,False,CC[n+]1ccn(C)c1.O=S(=O)([O-])C(F)(F)F,No changes
RTMou,318.15,101.0,1342.3,Vercher et al. (2011b),Liquid,0.8989,1-ethyl-3-methylimidazolium trifluoromethanesulfonate,,,CC[n+]1ccn(C)c1.O=S(=O)([O-])C(F)(F)F,1-ethyl-3-methylimidazolium trifluoromethanesulfonate,AAyCVz,CC(C)O,propan-2-ol,AALcwx,CC[n+]1ccn(C)c1,O=S(=O)([O-])C(F)(F)F,2,,,,1024,False,CC[n+]1ccn(C)c1.O=S(=O)([O-])C(F)(F)F,No changes
RTMou,318.15,101.0,1354.8,Vercher et al. (2011b),Liquid,0.9462,1-ethyl-3-methylimidazolium trifluoromethanesulfonate,,,CC[n+]1ccn(C)c1.O=S(=O)([O-])C(F)(F)F,1-ethyl-3-methylimidazolium trifluoromethanesulfonate,AAyCVz,CC(C)O,propan-2-ol,AALcwx,CC[n+]1ccn(C)c1,O=S(=O)([O-])C(F)(F)F,2,,,,1025,False,CC[n+]1ccn(C)c1.O=S(=O)([O-])C(F)(F)F,No changes
RTMou,328.15,101.0,825.89,Vercher et al. (2011b),Liquid,0.0499,1-ethyl-3-methylimidazolium trifluoromethanesulfonate,,,CC[n+]1ccn(C)c1.O=S(=O)([O-])C(F)(F)F,1-ethyl-3-methylimidazolium trifluoromethanesulfonate,AAyCVz,CC(C)O,propan-2-ol,AALcwx,CC[n+]1ccn(C)c1,O=S(=O)([O-])C(F)(F)F,2,,,,1026,False,CC[n+]1ccn(C)c1.O=S(=O)([O-])C(F)(F)F,No changes
RTMou,328.15,101.0,887.02,Vercher et al. (2011b),Liquid,0.0996,1-ethyl-3-methylimidazolium trifluoromethanesulfonate,,,CC[n+]1ccn(C)c1.O=S(=O)([O-])C(F)(F)F,1-ethyl-3-methylimidazolium trifluoromethanesulfonate,AAyCVz,CC(C)O,propan-2-ol,AALcwx,CC[n+]1ccn(C)c1,O=S(=O)([O-])C(F)(F)F,2,,,,1027,False,CC[n+]1ccn(C)c1.O=S(=O)([O-])C(F)(F)F,No changes
RTMou,328.15,101.0,941.42,Vercher et al. (2011b),Liquid,0.15,1-ethyl-3-methylimidazolium trifluoromethanesulfonate,,,CC[n+]1ccn(C)c1.O=S(=O)([O-])C(F)(F)F,1-ethyl-3-methylimidazolium trifluoromethanesulfonate,AAyCVz,CC(C)O,propan-2-ol,AALcwx,CC[n+]1ccn(C)c1,O=S(=O)([O-])C(F)(F)F,2,,,,1028,False,CC[n+]1ccn(C)c1.O=S(=O)([O-])C(F)(F)F,No changes
RTMou,328.15,101.0,989.35,Vercher et al. (2011b),Liquid,0.2001,1-ethyl-3-methylimidazolium trifluoromethanesulfonate,,,CC[n+]1ccn(C)c1.O=S(=O)([O-])C(F)(F)F,1-ethyl-3-methylimidazolium trifluoromethanesulfonate,AAyCVz,CC(C)O,propan-2-ol,AALcwx,CC[n+]1ccn(C)c1,O=S(=O)([O-])C(F)(F)F,2,,,,1029,False,CC[n+]1ccn(C)c1.O=S(=O)([O-])C(F)(F)F,No changes
RTMou,328.15,101.0,1069.21,Vercher et al. (2011b),Liquid,0.2994,1-ethyl-3-methylimidazolium trifluoromethanesulfonate,,,CC[n+]1ccn(C)c1.O=S(=O)([O-])C(F)(F)F,1-ethyl-3-methylimidazolium trifluoromethanesulfonate,AAyCVz,CC(C)O,propan-2-ol,AALcwx,CC[n+]1ccn(C)c1,O=S(=O)([O-])C(F)(F)F,2,,,,1030,False,CC[n+]1ccn(C)c1.O=S(=O)([O-])C(F)(F)F,No changes
RTMou,328.15,101.0,1135.22,Vercher et al. (2011b),Liquid,0.4004,1-ethyl-3-methylimidazolium trifluoromethanesulfonate,,,CC[n+]1ccn(C)c1.O=S(=O)([O-])C(F)(F)F,1-ethyl-3-methylimidazolium trifluoromethanesulfonate,AAyCVz,CC(C)O,propan-2-ol,AALcwx,CC[n+]1ccn(C)c1,O=S(=O)([O-])C(F)(F)F,2,,,,1031,False,CC[n+]1ccn(C)c1.O=S(=O)([O-])C(F)(F)F,No changes
RTMou,328.15,101.0,1189.27,Vercher et al. (2011b),Liquid,0.4997,1-ethyl-3-methylimidazolium trifluoromethanesulfonate,,,CC[n+]1ccn(C)c1.O=S(=O)([O-])C(F)(F)F,1-ethyl-3-methylimidazolium trifluoromethanesulfonate,AAyCVz,CC(C)O,propan-2-ol,AALcwx,CC[n+]1ccn(C)c1,O=S(=O)([O-])C(F)(F)F,2,,,,1032,False,CC[n+]1ccn(C)c1.O=S(=O)([O-])C(F)(F)F,No changes
RTMou,328.15,101.0,1234.58,Vercher et al. (2011b),Liquid,0.5999,1-ethyl-3-methylimidazolium trifluoromethanesulfonate,,,CC[n+]1ccn(C)c1.O=S(=O)([O-])C(F)(F)F,1-ethyl-3-methylimidazolium trifluoromethanesulfonate,AAyCVz,CC(C)O,propan-2-ol,AALcwx,CC[n+]1ccn(C)c1,O=S(=O)([O-])C(F)(F)F,2,,,,1033,False,CC[n+]1ccn(C)c1.O=S(=O)([O-])C(F)(F)F,No changes
RTMou,328.15,101.0,1273.2,Vercher et al. (2011b),Liquid,0.7019,1-ethyl-3-methylimidazolium trifluoromethanesulfonate,,,CC[n+]1ccn(C)c1.O=S(=O)([O-])C(F)(F)F,1-ethyl-3-methylimidazolium trifluoromethanesulfonate,AAyCVz,CC(C)O,propan-2-ol,AALcwx,CC[n+]1ccn(C)c1,O=S(=O)([O-])C(F)(F)F,2,,,,1034,False,CC[n+]1ccn(C)c1.O=S(=O)([O-])C(F)(F)F,No changes
RTMou,328.15,101.0,1305.2,Vercher et al. (2011b),Liquid,0.7987,1-ethyl-3-methylimidazolium trifluoromethanesulfonate,,,CC[n+]1ccn(C)c1.O=S(=O)([O-])C(F)(F)F,1-ethyl-3-methylimidazolium trifluoromethanesulfonate,AAyCVz,CC(C)O,propan-2-ol,AALcwx,CC[n+]1ccn(C)c1,O=S(=O)([O-])C(F)(F)F,2,,,,1035,False,CC[n+]1ccn(C)c1.O=S(=O)([O-])C(F)(F)F,No changes
RTMou,328.15,101.0,1321.0,Vercher et al. (2011b),Liquid,0.8519,1-ethyl-3-methylimidazolium trifluoromethanesulfonate,,,CC[n+]1ccn(C)c1.O=S(=O)([O-])C(F)(F)F,1-ethyl-3-methylimidazolium trifluoromethanesulfonate,AAyCVz,CC(C)O,propan-2-ol,AALcwx,CC[n+]1ccn(C)c1,O=S(=O)([O-])C(F)(F)F,2,,,,1036,False,CC[n+]1ccn(C)c1.O=S(=O)([O-])C(F)(F)F,No changes
RTMou,328.15,101.0,1334.1,Vercher et al. (2011b),Liquid,0.8989,1-ethyl-3-methylimidazolium trifluoromethanesulfonate,,,CC[n+]1ccn(C)c1.O=S(=O)([O-])C(F)(F)F,1-ethyl-3-methylimidazolium trifluoromethanesulfonate,AAyCVz,CC(C)O,propan-2-ol,AALcwx,CC[n+]1ccn(C)c1,O=S(=O)([O-])C(F)(F)F,2,,,,1037,False,CC[n+]1ccn(C)c1.O=S(=O)([O-])C(F)(F)F,No changes
RTMou,328.15,101.0,1346.5,Vercher et al. (2011b),Liquid,0.9462,1-ethyl-3-methylimidazolium trifluoromethanesulfonate,,,CC[n+]1ccn(C)c1.O=S(=O)([O-])C(F)(F)F,1-ethyl-3-methylimidazolium trifluoromethanesulfonate,AAyCVz,CC(C)O,propan-2-ol,AALcwx,CC[n+]1ccn(C)c1,O=S(=O)([O-])C(F)(F)F,2,,,,1038,False,CC[n+]1ccn(C)c1.O=S(=O)([O-])C(F)(F)F,No changes
yIVRm,293.15,101.0,785.0,Pereiro and Rodriguez (2007a),Liquid,0.0,1-butyl-3-methylimidazolium hexafluorophosphate,,,CCCC[n+]1ccn(C)c1.F[P-](F)(F)(F)(F)F,1-butyl-3-methylimidazolium hexafluorophosphate,ABChJv,CC(C)O,propan-2-ol,AALcwx,CCCC[n+]1ccn(C)c1,F[P-](F)(F)(F)(F)F,2,,,,1039,False,CCCC[n+]1ccn(C)c1.F[P-](F)(F)(F)(F)F,No changes
yIVRm,293.15,101.0,786.3,Pereiro and Rodriguez (2007a),Liquid,0.0008,1-butyl-3-methylimidazolium hexafluorophosphate,,,CCCC[n+]1ccn(C)c1.F[P-](F)(F)(F)(F)F,1-butyl-3-methylimidazolium hexafluorophosphate,ABChJv,CC(C)O,propan-2-ol,AALcwx,CCCC[n+]1ccn(C)c1,F[P-](F)(F)(F)(F)F,2,,,,1040,False,CCCC[n+]1ccn(C)c1.F[P-](F)(F)(F)(F)F,No changes
yIVRm,293.15,101.0,786.9,Pereiro and Rodriguez (2007a),Liquid,0.0011,1-butyl-3-methylimidazolium hexafluorophosphate,,,CCCC[n+]1ccn(C)c1.F[P-](F)(F)(F)(F)F,1-butyl-3-methylimidazolium hexafluorophosphate,ABChJv,CC(C)O,propan-2-ol,AALcwx,CCCC[n+]1ccn(C)c1,F[P-](F)(F)(F)(F)F,2,,,,1041,False,CCCC[n+]1ccn(C)c1.F[P-](F)(F)(F)(F)F,No changes
yIVRm,293.15,101.0,1298.5,Pereiro and Rodriguez (2007a),Liquid,0.7136,1-butyl-3-methylimidazolium hexafluorophosphate,,,CCCC[n+]1ccn(C)c1.F[P-](F)(F)(F)(F)F,1-butyl-3-methylimidazolium hexafluorophosphate,ABChJv,CC(C)O,propan-2-ol,AALcwx,CCCC[n+]1ccn(C)c1,F[P-](F)(F)(F)(F)F,2,,,,1042,False,CCCC[n+]1ccn(C)c1.F[P-](F)(F)(F)(F)F,No changes
yIVRm,293.15,101.0,1328.2,Pereiro and Rodriguez (2007a),Liquid,0.8175,1-butyl-3-methylimidazolium hexafluorophosphate,,,CCCC[n+]1ccn(C)c1.F[P-](F)(F)(F)(F)F,1-butyl-3-methylimidazolium hexafluorophosphate,ABChJv,CC(C)O,propan-2-ol,AALcwx,CCCC[n+]1ccn(C)c1,F[P-](F)(F)(F)(F)F,2,,,,1043,False,CCCC[n+]1ccn(C)c1.F[P-](F)(F)(F)(F)F,No changes
yIVRm,293.15,101.0,1347.6,Pereiro and Rodriguez (2007a),Liquid,0.8945,1-butyl-3-methylimidazolium hexafluorophosphate,,,CCCC[n+]1ccn(C)c1.F[P-](F)(F)(F)(F)F,1-butyl-3-methylimidazolium hexafluorophosphate,ABChJv,CC(C)O,propan-2-ol,AALcwx,CCCC[n+]1ccn(C)c1,F[P-](F)(F)(F)(F)F,2,,,,1044,False,CCCC[n+]1ccn(C)c1.F[P-](F)(F)(F)(F)F,No changes
yIVRm,293.15,101.0,1361.5,Pereiro and Rodriguez (2007a),Liquid,0.9542,1-butyl-3-methylimidazolium hexafluorophosphate,,,CCCC[n+]1ccn(C)c1.F[P-](F)(F)(F)(F)F,1-butyl-3-methylimidazolium hexafluorophosphate,ABChJv,CC(C)O,propan-2-ol,AALcwx,CCCC[n+]1ccn(C)c1,F[P-](F)(F)(F)(F)F,2,,,,1045,False,CCCC[n+]1ccn(C)c1.F[P-](F)(F)(F)(F)F,No changes
yIVRm,293.15,101.0,1371.6,Pereiro and Rodriguez (2007a),Liquid,1.0,1-butyl-3-methylimidazolium hexafluorophosphate,,,CCCC[n+]1ccn(C)c1.F[P-](F)(F)(F)(F)F,1-butyl-3-methylimidazolium hexafluorophosphate,ABChJv,CC(C)O,propan-2-ol,AALcwx,CCCC[n+]1ccn(C)c1,F[P-](F)(F)(F)(F)F,2,,,,1046,False,CCCC[n+]1ccn(C)c1.F[P-](F)(F)(F)(F)F,No changes
yIVRm,298.15,101.0,781.0,Pereiro and Rodriguez (2007a),Liquid,0.0,1-butyl-3-methylimidazolium hexafluorophosphate,,,CCCC[n+]1ccn(C)c1.F[P-](F)(F)(F)(F)F,1-butyl-3-methylimidazolium hexafluorophosphate,ABChJv,CC(C)O,propan-2-ol,AALcwx,CCCC[n+]1ccn(C)c1,F[P-](F)(F)(F)(F)F,2,,,,1047,False,CCCC[n+]1ccn(C)c1.F[P-](F)(F)(F)(F)F,No changes
yIVRm,298.15,101.0,782.3,Pereiro and Rodriguez (2007a),Liquid,0.0008,1-butyl-3-methylimidazolium hexafluorophosphate,,,CCCC[n+]1ccn(C)c1.F[P-](F)(F)(F)(F)F,1-butyl-3-methylimidazolium hexafluorophosphate,ABChJv,CC(C)O,propan-2-ol,AALcwx,CCCC[n+]1ccn(C)c1,F[P-](F)(F)(F)(F)F,2,,,,1048,False,CCCC[n+]1ccn(C)c1.F[P-](F)(F)(F)(F)F,No changes
yIVRm,298.15,101.0,782.9,Pereiro and Rodriguez (2007a),Liquid,0.0011,1-butyl-3-methylimidazolium hexafluorophosphate,,,CCCC[n+]1ccn(C)c1.F[P-](F)(F)(F)(F)F,1-butyl-3-methylimidazolium hexafluorophosphate,ABChJv,CC(C)O,propan-2-ol,AALcwx,CCCC[n+]1ccn(C)c1,F[P-](F)(F)(F)(F)F,2,,,,1049,False,CCCC[n+]1ccn(C)c1.F[P-](F)(F)(F)(F)F,No changes
yIVRm,298.15,101.0,1294.3,Pereiro and Rodriguez (2007a),Liquid,0.7136,1-butyl-3-methylimidazolium hexafluorophosphate,,,CCCC[n+]1ccn(C)c1.F[P-](F)(F)(F)(F)F,1-butyl-3-methylimidazolium hexafluorophosphate,ABChJv,CC(C)O,propan-2-ol,AALcwx,CCCC[n+]1ccn(C)c1,F[P-](F)(F)(F)(F)F,2,,,,1050,False,CCCC[n+]1ccn(C)c1.F[P-](F)(F)(F)(F)F,No changes
yIVRm,298.15,101.0,1324.0,Pereiro and Rodriguez (2007a),Liquid,0.8175,1-butyl-3-methylimidazolium hexafluorophosphate,,,CCCC[n+]1ccn(C)c1.F[P-](F)(F)(F)(F)F,1-butyl-3-methylimidazolium hexafluorophosphate,ABChJv,CC(C)O,propan-2-ol,AALcwx,CCCC[n+]1ccn(C)c1,F[P-](F)(F)(F)(F)F,2,,,,1051,False,CCCC[n+]1ccn(C)c1.F[P-](F)(F)(F)(F)F,No changes
yIVRm,298.15,101.0,1343.4,Pereiro and Rodriguez (2007a),Liquid,0.8945,1-butyl-3-methylimidazolium hexafluorophosphate,,,CCCC[n+]1ccn(C)c1.F[P-](F)(F)(F)(F)F,1-butyl-3-methylimidazolium hexafluorophosphate,ABChJv,CC(C)O,propan-2-ol,AALcwx,CCCC[n+]1ccn(C)c1,F[P-](F)(F)(F)(F)F,2,,,,1052,False,CCCC[n+]1ccn(C)c1.F[P-](F)(F)(F)(F)F,No changes
yIVRm,298.15,101.0,1357.2,Pereiro and Rodriguez (2007a),Liquid,0.9542,1-butyl-3-methylimidazolium hexafluorophosphate,,,CCCC[n+]1ccn(C)c1.F[P-](F)(F)(F)(F)F,1-butyl-3-methylimidazolium hexafluorophosphate,ABChJv,CC(C)O,propan-2-ol,AALcwx,CCCC[n+]1ccn(C)c1,F[P-](F)(F)(F)(F)F,2,,,,1053,False,CCCC[n+]1ccn(C)c1.F[P-](F)(F)(F)(F)F,No changes
yIVRm,298.15,101.0,1367.3,Pereiro and Rodriguez (2007a),Liquid,1.0,1-butyl-3-methylimidazolium hexafluorophosphate,,,CCCC[n+]1ccn(C)c1.F[P-](F)(F)(F)(F)F,1-butyl-3-methylimidazolium hexafluorophosphate,ABChJv,CC(C)O,propan-2-ol,AALcwx,CCCC[n+]1ccn(C)c1,F[P-](F)(F)(F)(F)F,2,,,,1054,False,CCCC[n+]1ccn(C)c1.F[P-](F)(F)(F)(F)F,No changes
yIVRm,303.15,101.0,776.6,Pereiro and Rodriguez (2007a),Liquid,0.0,1-butyl-3-methylimidazolium hexafluorophosphate,,,CCCC[n+]1ccn(C)c1.F[P-](F)(F)(F)(F)F,1-butyl-3-methylimidazolium hexafluorophosphate,ABChJv,CC(C)O,propan-2-ol,AALcwx,CCCC[n+]1ccn(C)c1,F[P-](F)(F)(F)(F)F,2,,,,1055,False,CCCC[n+]1ccn(C)c1.F[P-](F)(F)(F)(F)F,No changes
yIVRm,303.15,101.0,778.0,Pereiro and Rodriguez (2007a),Liquid,0.0008,1-butyl-3-methylimidazolium hexafluorophosphate,,,CCCC[n+]1ccn(C)c1.F[P-](F)(F)(F)(F)F,1-butyl-3-methylimidazolium hexafluorophosphate,ABChJv,CC(C)O,propan-2-ol,AALcwx,CCCC[n+]1ccn(C)c1,F[P-](F)(F)(F)(F)F,2,,,,1056,False,CCCC[n+]1ccn(C)c1.F[P-](F)(F)(F)(F)F,No changes
yIVRm,303.15,101.0,778.5,Pereiro and Rodriguez (2007a),Liquid,0.0011,1-butyl-3-methylimidazolium hexafluorophosphate,,,CCCC[n+]1ccn(C)c1.F[P-](F)(F)(F)(F)F,1-butyl-3-methylimidazolium hexafluorophosphate,ABChJv,CC(C)O,propan-2-ol,AALcwx,CCCC[n+]1ccn(C)c1,F[P-](F)(F)(F)(F)F,2,,,,1057,False,CCCC[n+]1ccn(C)c1.F[P-](F)(F)(F)(F)F,No changes
yIVRm,303.15,101.0,1290.0,Pereiro and Rodriguez (2007a),Liquid,0.7136,1-butyl-3-methylimidazolium hexafluorophosphate,,,CCCC[n+]1ccn(C)c1.F[P-](F)(F)(F)(F)F,1-butyl-3-methylimidazolium hexafluorophosphate,ABChJv,CC(C)O,propan-2-ol,AALcwx,CCCC[n+]1ccn(C)c1,F[P-](F)(F)(F)(F)F,2,,,,1058,False,CCCC[n+]1ccn(C)c1.F[P-](F)(F)(F)(F)F,No changes
yIVRm,303.15,101.0,1319.8,Pereiro and Rodriguez (2007a),Liquid,0.8175,1-butyl-3-methylimidazolium hexafluorophosphate,,,CCCC[n+]1ccn(C)c1.F[P-](F)(F)(F)(F)F,1-butyl-3-methylimidazolium hexafluorophosphate,ABChJv,CC(C)O,propan-2-ol,AALcwx,CCCC[n+]1ccn(C)c1,F[P-](F)(F)(F)(F)F,2,,,,1059,False,CCCC[n+]1ccn(C)c1.F[P-](F)(F)(F)(F)F,No changes
yIVRm,303.15,101.0,1339.3,Pereiro and Rodriguez (2007a),Liquid,0.8945,1-butyl-3-methylimidazolium hexafluorophosphate,,,CCCC[n+]1ccn(C)c1.F[P-](F)(F)(F)(F)F,1-butyl-3-methylimidazolium hexafluorophosphate,ABChJv,CC(C)O,propan-2-ol,AALcwx,CCCC[n+]1ccn(C)c1,F[P-](F)(F)(F)(F)F,2,,,,1060,False,CCCC[n+]1ccn(C)c1.F[P-](F)(F)(F)(F)F,No changes
yIVRm,303.15,101.0,1353.0,Pereiro and Rodriguez (2007a),Liquid,0.9542,1-butyl-3-methylimidazolium hexafluorophosphate,,,CCCC[n+]1ccn(C)c1.F[P-](F)(F)(F)(F)F,1-butyl-3-methylimidazolium hexafluorophosphate,ABChJv,CC(C)O,propan-2-ol,AALcwx,CCCC[n+]1ccn(C)c1,F[P-](F)(F)(F)(F)F,2,,,,1061,False,CCCC[n+]1ccn(C)c1.F[P-](F)(F)(F)(F)F,No changes
yIVRm,303.15,101.0,1363.0,Pereiro and Rodriguez (2007a),Liquid,1.0,1-butyl-3-methylimidazolium hexafluorophosphate,,,CCCC[n+]1ccn(C)c1.F[P-](F)(F)(F)(F)F,1-butyl-3-methylimidazolium hexafluorophosphate,ABChJv,CC(C)O,propan-2-ol,AALcwx,CCCC[n+]1ccn(C)c1,F[P-](F)(F)(F)(F)F,2,,,,1062,False,CCCC[n+]1ccn(C)c1.F[P-](F)(F)(F)(F)F,No changes
XeZfm,293.15,100.0,785.4,Heydarian et al. (2019),Liquid,0.0,1-butyl-3-methylimidazolium nitrate,,,CCCC[n+]1ccn(C)c1.O=[N+]([O-])[O-],1-butyl-3-methylimidazolium nitrate,AAmkVH,CC(C)O,propan-2-ol,AALcwx,CCCC[n+]1ccn(C)c1,O=[N+]([O-])[O-],2,,,,1063,False,CCCC[n+]1ccn(C)c1.O=[N+]([O-])[O-],No changes
XeZfm,293.15,100.0,853.9,Heydarian et al. (2019),Liquid,0.0815,1-butyl-3-methylimidazolium nitrate,,,CCCC[n+]1ccn(C)c1.O=[N+]([O-])[O-],1-butyl-3-methylimidazolium nitrate,AAmkVH,CC(C)O,propan-2-ol,AALcwx,CCCC[n+]1ccn(C)c1,O=[N+]([O-])[O-],2,,,,1064,False,CCCC[n+]1ccn(C)c1.O=[N+]([O-])[O-],No changes