setid,Temperature (K),Pressure (kPa),Density (kg/m3),reference,phases,Mole fraction,Mole fraction of compound name,Weight fraction,Weight fraction of compound name,IL_SMILES,IL_name,IL_ID,Solvent_SMILES,Solvent_name,Solvent_ID,IL_cation_SMILES,IL_anion_SMILES,IL_component_number,Mole fraction of solvent,IL_MW,Solvent_MW,Record_ID,Contains_Metal,Standardized_IL_SMILES,Changes
qEurR,308.15,101.0,928.4,Barros et al. (2018),Liquid,0.1891,ethanol,,,[NH3+]CCO.CC(O)C(=O)[O-],2-hydroxyethylammonium lactate,AAdDEB,CCO,ethanol,AAIsrh,[NH3+]CCO,CC(O)C(=O)[O-],2,0.8109,,,1681,False,[NH3+]CCO.CC(O)C(=O)[O-],No changes
qEurR,308.15,101.0,825.8,Barros et al. (2018),Liquid,0.0472,ethanol,,,[NH3+]CCO.CC(O)C(=O)[O-],2-hydroxyethylammonium lactate,AAdDEB,CCO,ethanol,AAIsrh,[NH3+]CCO,CC(O)C(=O)[O-],2,0.9528,,,1682,False,[NH3+]CCO.CC(O)C(=O)[O-],No changes
qEurR,310.65,101.0,1183.2,Barros et al. (2018),Liquid,0.9457,ethanol,,,[NH3+]CCO.CC(O)C(=O)[O-],2-hydroxyethylammonium lactate,AAdDEB,CCO,ethanol,AAIsrh,[NH3+]CCO,CC(O)C(=O)[O-],2,0.0543,,,1683,False,[NH3+]CCO.CC(O)C(=O)[O-],No changes
qEurR,310.65,101.0,1175.0,Barros et al. (2018),Liquid,0.8949,ethanol,,,[NH3+]CCO.CC(O)C(=O)[O-],2-hydroxyethylammonium lactate,AAdDEB,CCO,ethanol,AAIsrh,[NH3+]CCO,CC(O)C(=O)[O-],2,0.1051,,,1684,False,[NH3+]CCO.CC(O)C(=O)[O-],No changes
qEurR,310.65,101.0,1153.5,Barros et al. (2018),Liquid,0.794,ethanol,,,[NH3+]CCO.CC(O)C(=O)[O-],2-hydroxyethylammonium lactate,AAdDEB,CCO,ethanol,AAIsrh,[NH3+]CCO,CC(O)C(=O)[O-],2,0.206,,,1685,False,[NH3+]CCO.CC(O)C(=O)[O-],No changes
qEurR,310.65,101.0,1128.1,Barros et al. (2018),Liquid,0.6849000000000001,ethanol,,,[NH3+]CCO.CC(O)C(=O)[O-],2-hydroxyethylammonium lactate,AAdDEB,CCO,ethanol,AAIsrh,[NH3+]CCO,CC(O)C(=O)[O-],2,0.3151,,,1686,False,[NH3+]CCO.CC(O)C(=O)[O-],No changes
qEurR,310.65,101.0,1100.4,Barros et al. (2018),Liquid,0.5856,ethanol,,,[NH3+]CCO.CC(O)C(=O)[O-],2-hydroxyethylammonium lactate,AAdDEB,CCO,ethanol,AAIsrh,[NH3+]CCO,CC(O)C(=O)[O-],2,0.4144,,,1687,False,[NH3+]CCO.CC(O)C(=O)[O-],No changes
qEurR,310.65,101.0,1068.2,Barros et al. (2018),Liquid,0.4878,ethanol,,,[NH3+]CCO.CC(O)C(=O)[O-],2-hydroxyethylammonium lactate,AAdDEB,CCO,ethanol,AAIsrh,[NH3+]CCO,CC(O)C(=O)[O-],2,0.5122,,,1688,False,[NH3+]CCO.CC(O)C(=O)[O-],No changes
qEurR,310.65,101.0,1029.7,Barros et al. (2018),Liquid,0.3883999999999999,ethanol,,,[NH3+]CCO.CC(O)C(=O)[O-],2-hydroxyethylammonium lactate,AAdDEB,CCO,ethanol,AAIsrh,[NH3+]CCO,CC(O)C(=O)[O-],2,0.6116,,,1689,False,[NH3+]CCO.CC(O)C(=O)[O-],No changes
qEurR,310.65,101.0,976.9,Barros et al. (2018),Liquid,0.2768,ethanol,,,[NH3+]CCO.CC(O)C(=O)[O-],2-hydroxyethylammonium lactate,AAdDEB,CCO,ethanol,AAIsrh,[NH3+]CCO,CC(O)C(=O)[O-],2,0.7232,,,1690,False,[NH3+]CCO.CC(O)C(=O)[O-],No changes
qEurR,310.65,101.0,926.4,Barros et al. (2018),Liquid,0.1891,ethanol,,,[NH3+]CCO.CC(O)C(=O)[O-],2-hydroxyethylammonium lactate,AAdDEB,CCO,ethanol,AAIsrh,[NH3+]CCO,CC(O)C(=O)[O-],2,0.8109,,,1691,False,[NH3+]CCO.CC(O)C(=O)[O-],No changes
qEurR,310.65,101.0,823.6,Barros et al. (2018),Liquid,0.0472,ethanol,,,[NH3+]CCO.CC(O)C(=O)[O-],2-hydroxyethylammonium lactate,AAdDEB,CCO,ethanol,AAIsrh,[NH3+]CCO,CC(O)C(=O)[O-],2,0.9528,,,1692,False,[NH3+]CCO.CC(O)C(=O)[O-],No changes
qEurR,313.15,101.0,1181.6,Barros et al. (2018),Liquid,0.9457,ethanol,,,[NH3+]CCO.CC(O)C(=O)[O-],2-hydroxyethylammonium lactate,AAdDEB,CCO,ethanol,AAIsrh,[NH3+]CCO,CC(O)C(=O)[O-],2,0.0543,,,1693,False,[NH3+]CCO.CC(O)C(=O)[O-],No changes
qEurR,313.15,101.0,1173.4,Barros et al. (2018),Liquid,0.8949,ethanol,,,[NH3+]CCO.CC(O)C(=O)[O-],2-hydroxyethylammonium lactate,AAdDEB,CCO,ethanol,AAIsrh,[NH3+]CCO,CC(O)C(=O)[O-],2,0.1051,,,1694,False,[NH3+]CCO.CC(O)C(=O)[O-],No changes
qEurR,313.15,101.0,1151.9,Barros et al. (2018),Liquid,0.794,ethanol,,,[NH3+]CCO.CC(O)C(=O)[O-],2-hydroxyethylammonium lactate,AAdDEB,CCO,ethanol,AAIsrh,[NH3+]CCO,CC(O)C(=O)[O-],2,0.206,,,1695,False,[NH3+]CCO.CC(O)C(=O)[O-],No changes
qEurR,313.15,101.0,1126.5,Barros et al. (2018),Liquid,0.6849000000000001,ethanol,,,[NH3+]CCO.CC(O)C(=O)[O-],2-hydroxyethylammonium lactate,AAdDEB,CCO,ethanol,AAIsrh,[NH3+]CCO,CC(O)C(=O)[O-],2,0.3151,,,1696,False,[NH3+]CCO.CC(O)C(=O)[O-],No changes
qEurR,313.15,101.0,1098.7,Barros et al. (2018),Liquid,0.5856,ethanol,,,[NH3+]CCO.CC(O)C(=O)[O-],2-hydroxyethylammonium lactate,AAdDEB,CCO,ethanol,AAIsrh,[NH3+]CCO,CC(O)C(=O)[O-],2,0.4144,,,1697,False,[NH3+]CCO.CC(O)C(=O)[O-],No changes
qEurR,313.15,101.0,1066.5,Barros et al. (2018),Liquid,0.4878,ethanol,,,[NH3+]CCO.CC(O)C(=O)[O-],2-hydroxyethylammonium lactate,AAdDEB,CCO,ethanol,AAIsrh,[NH3+]CCO,CC(O)C(=O)[O-],2,0.5122,,,1698,False,[NH3+]CCO.CC(O)C(=O)[O-],No changes
qEurR,313.15,101.0,1027.9,Barros et al. (2018),Liquid,0.3883999999999999,ethanol,,,[NH3+]CCO.CC(O)C(=O)[O-],2-hydroxyethylammonium lactate,AAdDEB,CCO,ethanol,AAIsrh,[NH3+]CCO,CC(O)C(=O)[O-],2,0.6116,,,1699,False,[NH3+]CCO.CC(O)C(=O)[O-],No changes
qEurR,313.15,101.0,975.0,Barros et al. (2018),Liquid,0.2768,ethanol,,,[NH3+]CCO.CC(O)C(=O)[O-],2-hydroxyethylammonium lactate,AAdDEB,CCO,ethanol,AAIsrh,[NH3+]CCO,CC(O)C(=O)[O-],2,0.7232,,,1700,False,[NH3+]CCO.CC(O)C(=O)[O-],No changes
qEurR,313.15,101.0,924.5,Barros et al. (2018),Liquid,0.1891,ethanol,,,[NH3+]CCO.CC(O)C(=O)[O-],2-hydroxyethylammonium lactate,AAdDEB,CCO,ethanol,AAIsrh,[NH3+]CCO,CC(O)C(=O)[O-],2,0.8109,,,1701,False,[NH3+]CCO.CC(O)C(=O)[O-],No changes
qEurR,313.15,101.0,821.5,Barros et al. (2018),Liquid,0.0472,ethanol,,,[NH3+]CCO.CC(O)C(=O)[O-],2-hydroxyethylammonium lactate,AAdDEB,CCO,ethanol,AAIsrh,[NH3+]CCO,CC(O)C(=O)[O-],2,0.9528,,,1702,False,[NH3+]CCO.CC(O)C(=O)[O-],No changes
qEurR,315.65,101.0,1180.1,Barros et al. (2018),Liquid,0.9457,ethanol,,,[NH3+]CCO.CC(O)C(=O)[O-],2-hydroxyethylammonium lactate,AAdDEB,CCO,ethanol,AAIsrh,[NH3+]CCO,CC(O)C(=O)[O-],2,0.0543,,,1703,False,[NH3+]CCO.CC(O)C(=O)[O-],No changes
qEurR,315.65,101.0,1171.9,Barros et al. (2018),Liquid,0.8949,ethanol,,,[NH3+]CCO.CC(O)C(=O)[O-],2-hydroxyethylammonium lactate,AAdDEB,CCO,ethanol,AAIsrh,[NH3+]CCO,CC(O)C(=O)[O-],2,0.1051,,,1704,False,[NH3+]CCO.CC(O)C(=O)[O-],No changes
qEurR,315.65,101.0,1150.3,Barros et al. (2018),Liquid,0.794,ethanol,,,[NH3+]CCO.CC(O)C(=O)[O-],2-hydroxyethylammonium lactate,AAdDEB,CCO,ethanol,AAIsrh,[NH3+]CCO,CC(O)C(=O)[O-],2,0.206,,,1705,False,[NH3+]CCO.CC(O)C(=O)[O-],No changes
qEurR,315.65,101.0,1124.9,Barros et al. (2018),Liquid,0.6849000000000001,ethanol,,,[NH3+]CCO.CC(O)C(=O)[O-],2-hydroxyethylammonium lactate,AAdDEB,CCO,ethanol,AAIsrh,[NH3+]CCO,CC(O)C(=O)[O-],2,0.3151,,,1706,False,[NH3+]CCO.CC(O)C(=O)[O-],No changes
qEurR,315.65,101.0,1097.1,Barros et al. (2018),Liquid,0.5856,ethanol,,,[NH3+]CCO.CC(O)C(=O)[O-],2-hydroxyethylammonium lactate,AAdDEB,CCO,ethanol,AAIsrh,[NH3+]CCO,CC(O)C(=O)[O-],2,0.4144,,,1707,False,[NH3+]CCO.CC(O)C(=O)[O-],No changes
qEurR,315.65,101.0,1064.8,Barros et al. (2018),Liquid,0.4878,ethanol,,,[NH3+]CCO.CC(O)C(=O)[O-],2-hydroxyethylammonium lactate,AAdDEB,CCO,ethanol,AAIsrh,[NH3+]CCO,CC(O)C(=O)[O-],2,0.5122,,,1708,False,[NH3+]CCO.CC(O)C(=O)[O-],No changes
qEurR,315.65,101.0,1026.1,Barros et al. (2018),Liquid,0.3883999999999999,ethanol,,,[NH3+]CCO.CC(O)C(=O)[O-],2-hydroxyethylammonium lactate,AAdDEB,CCO,ethanol,AAIsrh,[NH3+]CCO,CC(O)C(=O)[O-],2,0.6116,,,1709,False,[NH3+]CCO.CC(O)C(=O)[O-],No changes
qEurR,315.65,101.0,973.2,Barros et al. (2018),Liquid,0.2768,ethanol,,,[NH3+]CCO.CC(O)C(=O)[O-],2-hydroxyethylammonium lactate,AAdDEB,CCO,ethanol,AAIsrh,[NH3+]CCO,CC(O)C(=O)[O-],2,0.7232,,,1710,False,[NH3+]CCO.CC(O)C(=O)[O-],No changes
qEurR,315.65,101.0,922.5,Barros et al. (2018),Liquid,0.1891,ethanol,,,[NH3+]CCO.CC(O)C(=O)[O-],2-hydroxyethylammonium lactate,AAdDEB,CCO,ethanol,AAIsrh,[NH3+]CCO,CC(O)C(=O)[O-],2,0.8109,,,1711,False,[NH3+]CCO.CC(O)C(=O)[O-],No changes
qEurR,315.65,101.0,819.3,Barros et al. (2018),Liquid,0.0472,ethanol,,,[NH3+]CCO.CC(O)C(=O)[O-],2-hydroxyethylammonium lactate,AAdDEB,CCO,ethanol,AAIsrh,[NH3+]CCO,CC(O)C(=O)[O-],2,0.9528,,,1712,False,[NH3+]CCO.CC(O)C(=O)[O-],No changes
qEurR,318.15,101.0,1178.6,Barros et al. (2018),Liquid,0.9457,ethanol,,,[NH3+]CCO.CC(O)C(=O)[O-],2-hydroxyethylammonium lactate,AAdDEB,CCO,ethanol,AAIsrh,[NH3+]CCO,CC(O)C(=O)[O-],2,0.0543,,,1713,False,[NH3+]CCO.CC(O)C(=O)[O-],No changes
qEurR,318.15,101.0,1170.4,Barros et al. (2018),Liquid,0.8949,ethanol,,,[NH3+]CCO.CC(O)C(=O)[O-],2-hydroxyethylammonium lactate,AAdDEB,CCO,ethanol,AAIsrh,[NH3+]CCO,CC(O)C(=O)[O-],2,0.1051,,,1714,False,[NH3+]CCO.CC(O)C(=O)[O-],No changes
qEurR,318.15,101.0,1148.8,Barros et al. (2018),Liquid,0.794,ethanol,,,[NH3+]CCO.CC(O)C(=O)[O-],2-hydroxyethylammonium lactate,AAdDEB,CCO,ethanol,AAIsrh,[NH3+]CCO,CC(O)C(=O)[O-],2,0.206,,,1715,False,[NH3+]CCO.CC(O)C(=O)[O-],No changes
qEurR,318.15,101.0,1123.2,Barros et al. (2018),Liquid,0.6849000000000001,ethanol,,,[NH3+]CCO.CC(O)C(=O)[O-],2-hydroxyethylammonium lactate,AAdDEB,CCO,ethanol,AAIsrh,[NH3+]CCO,CC(O)C(=O)[O-],2,0.3151,,,1716,False,[NH3+]CCO.CC(O)C(=O)[O-],No changes
qEurR,318.15,101.0,1095.4,Barros et al. (2018),Liquid,0.5856,ethanol,,,[NH3+]CCO.CC(O)C(=O)[O-],2-hydroxyethylammonium lactate,AAdDEB,CCO,ethanol,AAIsrh,[NH3+]CCO,CC(O)C(=O)[O-],2,0.4144,,,1717,False,[NH3+]CCO.CC(O)C(=O)[O-],No changes
qEurR,318.15,101.0,1063.1,Barros et al. (2018),Liquid,0.4878,ethanol,,,[NH3+]CCO.CC(O)C(=O)[O-],2-hydroxyethylammonium lactate,AAdDEB,CCO,ethanol,AAIsrh,[NH3+]CCO,CC(O)C(=O)[O-],2,0.5122,,,1718,False,[NH3+]CCO.CC(O)C(=O)[O-],No changes
qEurR,318.15,101.0,1024.3,Barros et al. (2018),Liquid,0.3883999999999999,ethanol,,,[NH3+]CCO.CC(O)C(=O)[O-],2-hydroxyethylammonium lactate,AAdDEB,CCO,ethanol,AAIsrh,[NH3+]CCO,CC(O)C(=O)[O-],2,0.6116,,,1719,False,[NH3+]CCO.CC(O)C(=O)[O-],No changes
qEurR,318.15,101.0,971.3,Barros et al. (2018),Liquid,0.2768,ethanol,,,[NH3+]CCO.CC(O)C(=O)[O-],2-hydroxyethylammonium lactate,AAdDEB,CCO,ethanol,AAIsrh,[NH3+]CCO,CC(O)C(=O)[O-],2,0.7232,,,1720,False,[NH3+]CCO.CC(O)C(=O)[O-],No changes
qEurR,318.15,101.0,920.5,Barros et al. (2018),Liquid,0.1891,ethanol,,,[NH3+]CCO.CC(O)C(=O)[O-],2-hydroxyethylammonium lactate,AAdDEB,CCO,ethanol,AAIsrh,[NH3+]CCO,CC(O)C(=O)[O-],2,0.8109,,,1721,False,[NH3+]CCO.CC(O)C(=O)[O-],No changes
qEurR,318.15,101.0,817.1,Barros et al. (2018),Liquid,0.0472,ethanol,,,[NH3+]CCO.CC(O)C(=O)[O-],2-hydroxyethylammonium lactate,AAdDEB,CCO,ethanol,AAIsrh,[NH3+]CCO,CC(O)C(=O)[O-],2,0.9528,,,1722,False,[NH3+]CCO.CC(O)C(=O)[O-],No changes
qEurR,320.65,101.0,1177.1,Barros et al. (2018),Liquid,0.9457,ethanol,,,[NH3+]CCO.CC(O)C(=O)[O-],2-hydroxyethylammonium lactate,AAdDEB,CCO,ethanol,AAIsrh,[NH3+]CCO,CC(O)C(=O)[O-],2,0.0543,,,1723,False,[NH3+]CCO.CC(O)C(=O)[O-],No changes
qEurR,320.65,101.0,1168.9,Barros et al. (2018),Liquid,0.8949,ethanol,,,[NH3+]CCO.CC(O)C(=O)[O-],2-hydroxyethylammonium lactate,AAdDEB,CCO,ethanol,AAIsrh,[NH3+]CCO,CC(O)C(=O)[O-],2,0.1051,,,1724,False,[NH3+]CCO.CC(O)C(=O)[O-],No changes
qEurR,320.65,101.0,1147.2,Barros et al. (2018),Liquid,0.794,ethanol,,,[NH3+]CCO.CC(O)C(=O)[O-],2-hydroxyethylammonium lactate,AAdDEB,CCO,ethanol,AAIsrh,[NH3+]CCO,CC(O)C(=O)[O-],2,0.206,,,1725,False,[NH3+]CCO.CC(O)C(=O)[O-],No changes
qEurR,320.65,101.0,1121.6,Barros et al. (2018),Liquid,0.6849000000000001,ethanol,,,[NH3+]CCO.CC(O)C(=O)[O-],2-hydroxyethylammonium lactate,AAdDEB,CCO,ethanol,AAIsrh,[NH3+]CCO,CC(O)C(=O)[O-],2,0.3151,,,1726,False,[NH3+]CCO.CC(O)C(=O)[O-],No changes
qEurR,320.65,101.0,1093.7,Barros et al. (2018),Liquid,0.5856,ethanol,,,[NH3+]CCO.CC(O)C(=O)[O-],2-hydroxyethylammonium lactate,AAdDEB,CCO,ethanol,AAIsrh,[NH3+]CCO,CC(O)C(=O)[O-],2,0.4144,,,1727,False,[NH3+]CCO.CC(O)C(=O)[O-],No changes
qEurR,320.65,101.0,1061.3,Barros et al. (2018),Liquid,0.4878,ethanol,,,[NH3+]CCO.CC(O)C(=O)[O-],2-hydroxyethylammonium lactate,AAdDEB,CCO,ethanol,AAIsrh,[NH3+]CCO,CC(O)C(=O)[O-],2,0.5122,,,1728,False,[NH3+]CCO.CC(O)C(=O)[O-],No changes
qEurR,320.65,101.0,1022.5,Barros et al. (2018),Liquid,0.3883999999999999,ethanol,,,[NH3+]CCO.CC(O)C(=O)[O-],2-hydroxyethylammonium lactate,AAdDEB,CCO,ethanol,AAIsrh,[NH3+]CCO,CC(O)C(=O)[O-],2,0.6116,,,1729,False,[NH3+]CCO.CC(O)C(=O)[O-],No changes
qEurR,320.65,101.0,969.4,Barros et al. (2018),Liquid,0.2768,ethanol,,,[NH3+]CCO.CC(O)C(=O)[O-],2-hydroxyethylammonium lactate,AAdDEB,CCO,ethanol,AAIsrh,[NH3+]CCO,CC(O)C(=O)[O-],2,0.7232,,,1730,False,[NH3+]CCO.CC(O)C(=O)[O-],No changes
qEurR,320.65,101.0,918.5,Barros et al. (2018),Liquid,0.1891,ethanol,,,[NH3+]CCO.CC(O)C(=O)[O-],2-hydroxyethylammonium lactate,AAdDEB,CCO,ethanol,AAIsrh,[NH3+]CCO,CC(O)C(=O)[O-],2,0.8109,,,1731,False,[NH3+]CCO.CC(O)C(=O)[O-],No changes
qEurR,320.65,101.0,814.8,Barros et al. (2018),Liquid,0.0472,ethanol,,,[NH3+]CCO.CC(O)C(=O)[O-],2-hydroxyethylammonium lactate,AAdDEB,CCO,ethanol,AAIsrh,[NH3+]CCO,CC(O)C(=O)[O-],2,0.9528,,,1732,False,[NH3+]CCO.CC(O)C(=O)[O-],No changes
qEurR,323.15,101.0,1175.6,Barros et al. (2018),Liquid,0.9457,ethanol,,,[NH3+]CCO.CC(O)C(=O)[O-],2-hydroxyethylammonium lactate,AAdDEB,CCO,ethanol,AAIsrh,[NH3+]CCO,CC(O)C(=O)[O-],2,0.0543,,,1733,False,[NH3+]CCO.CC(O)C(=O)[O-],No changes
qEurR,323.15,101.0,1167.3,Barros et al. (2018),Liquid,0.8949,ethanol,,,[NH3+]CCO.CC(O)C(=O)[O-],2-hydroxyethylammonium lactate,AAdDEB,CCO,ethanol,AAIsrh,[NH3+]CCO,CC(O)C(=O)[O-],2,0.1051,,,1734,False,[NH3+]CCO.CC(O)C(=O)[O-],No changes
qEurR,323.15,101.0,1145.6,Barros et al. (2018),Liquid,0.794,ethanol,,,[NH3+]CCO.CC(O)C(=O)[O-],2-hydroxyethylammonium lactate,AAdDEB,CCO,ethanol,AAIsrh,[NH3+]CCO,CC(O)C(=O)[O-],2,0.206,,,1735,False,[NH3+]CCO.CC(O)C(=O)[O-],No changes
qEurR,323.15,101.0,1120.0,Barros et al. (2018),Liquid,0.6849000000000001,ethanol,,,[NH3+]CCO.CC(O)C(=O)[O-],2-hydroxyethylammonium lactate,AAdDEB,CCO,ethanol,AAIsrh,[NH3+]CCO,CC(O)C(=O)[O-],2,0.3151,,,1736,False,[NH3+]CCO.CC(O)C(=O)[O-],No changes
qEurR,323.15,101.0,1092.1,Barros et al. (2018),Liquid,0.5856,ethanol,,,[NH3+]CCO.CC(O)C(=O)[O-],2-hydroxyethylammonium lactate,AAdDEB,CCO,ethanol,AAIsrh,[NH3+]CCO,CC(O)C(=O)[O-],2,0.4144,,,1737,False,[NH3+]CCO.CC(O)C(=O)[O-],No changes
qEurR,323.15,101.0,1059.6,Barros et al. (2018),Liquid,0.4878,ethanol,,,[NH3+]CCO.CC(O)C(=O)[O-],2-hydroxyethylammonium lactate,AAdDEB,CCO,ethanol,AAIsrh,[NH3+]CCO,CC(O)C(=O)[O-],2,0.5122,,,1738,False,[NH3+]CCO.CC(O)C(=O)[O-],No changes
qEurR,323.15,101.0,1020.7,Barros et al. (2018),Liquid,0.3883999999999999,ethanol,,,[NH3+]CCO.CC(O)C(=O)[O-],2-hydroxyethylammonium lactate,AAdDEB,CCO,ethanol,AAIsrh,[NH3+]CCO,CC(O)C(=O)[O-],2,0.6116,,,1739,False,[NH3+]CCO.CC(O)C(=O)[O-],No changes
qEurR,323.15,101.0,967.5,Barros et al. (2018),Liquid,0.2768,ethanol,,,[NH3+]CCO.CC(O)C(=O)[O-],2-hydroxyethylammonium lactate,AAdDEB,CCO,ethanol,AAIsrh,[NH3+]CCO,CC(O)C(=O)[O-],2,0.7232,,,1740,False,[NH3+]CCO.CC(O)C(=O)[O-],No changes
qEurR,323.15,101.0,916.5,Barros et al. (2018),Liquid,0.1891,ethanol,,,[NH3+]CCO.CC(O)C(=O)[O-],2-hydroxyethylammonium lactate,AAdDEB,CCO,ethanol,AAIsrh,[NH3+]CCO,CC(O)C(=O)[O-],2,0.8109,,,1741,False,[NH3+]CCO.CC(O)C(=O)[O-],No changes
qEurR,323.15,101.0,811.9,Barros et al. (2018),Liquid,0.0472,ethanol,,,[NH3+]CCO.CC(O)C(=O)[O-],2-hydroxyethylammonium lactate,AAdDEB,CCO,ethanol,AAIsrh,[NH3+]CCO,CC(O)C(=O)[O-],2,0.9528,,,1742,False,[NH3+]CCO.CC(O)C(=O)[O-],No changes
HYKok,293.15,101.3,789.5,Hou et al. (2011),Liquid,0.0,"1,3-dimethylimidazolium acetate",,,Cn1cc[n+](C)c1.CC(=O)[O-],"1,3-dimethylimidazolium acetate",AAeBvd,CCO,ethanol,AAIsrh,Cn1cc[n+](C)c1,CC(=O)[O-],2,,,,1743,False,Cn1cc[n+](C)c1.CC(=O)[O-],No changes
HYKok,293.15,101.3,814.7,Hou et al. (2011),Liquid,0.0291,"1,3-dimethylimidazolium acetate",,,Cn1cc[n+](C)c1.CC(=O)[O-],"1,3-dimethylimidazolium acetate",AAeBvd,CCO,ethanol,AAIsrh,Cn1cc[n+](C)c1,CC(=O)[O-],2,,,,1744,False,Cn1cc[n+](C)c1.CC(=O)[O-],No changes
HYKok,293.15,101.3,823.6,Hou et al. (2011),Liquid,0.0405,"1,3-dimethylimidazolium acetate",,,Cn1cc[n+](C)c1.CC(=O)[O-],"1,3-dimethylimidazolium acetate",AAeBvd,CCO,ethanol,AAIsrh,Cn1cc[n+](C)c1,CC(=O)[O-],2,,,,1745,False,Cn1cc[n+](C)c1.CC(=O)[O-],No changes
HYKok,293.15,101.3,832.1,Hou et al. (2011),Liquid,0.0513,"1,3-dimethylimidazolium acetate",,,Cn1cc[n+](C)c1.CC(=O)[O-],"1,3-dimethylimidazolium acetate",AAeBvd,CCO,ethanol,AAIsrh,Cn1cc[n+](C)c1,CC(=O)[O-],2,,,,1746,False,Cn1cc[n+](C)c1.CC(=O)[O-],No changes
HYKok,293.15,101.3,848.3,Hou et al. (2011),Liquid,0.0733,"1,3-dimethylimidazolium acetate",,,Cn1cc[n+](C)c1.CC(=O)[O-],"1,3-dimethylimidazolium acetate",AAeBvd,CCO,ethanol,AAIsrh,Cn1cc[n+](C)c1,CC(=O)[O-],2,,,,1747,False,Cn1cc[n+](C)c1.CC(=O)[O-],No changes
HYKok,293.15,101.3,877.3,Hou et al. (2011),Liquid,0.1157,"1,3-dimethylimidazolium acetate",,,Cn1cc[n+](C)c1.CC(=O)[O-],"1,3-dimethylimidazolium acetate",AAeBvd,CCO,ethanol,AAIsrh,Cn1cc[n+](C)c1,CC(=O)[O-],2,,,,1748,False,Cn1cc[n+](C)c1.CC(=O)[O-],No changes
HYKok,293.15,101.3,931.8,Hou et al. (2011),Liquid,0.2104,"1,3-dimethylimidazolium acetate",,,Cn1cc[n+](C)c1.CC(=O)[O-],"1,3-dimethylimidazolium acetate",AAeBvd,CCO,ethanol,AAIsrh,Cn1cc[n+](C)c1,CC(=O)[O-],2,,,,1749,False,Cn1cc[n+](C)c1.CC(=O)[O-],No changes
HYKok,293.15,101.3,942.4,Hou et al. (2011),Liquid,0.2315,"1,3-dimethylimidazolium acetate",,,Cn1cc[n+](C)c1.CC(=O)[O-],"1,3-dimethylimidazolium acetate",AAeBvd,CCO,ethanol,AAIsrh,Cn1cc[n+](C)c1,CC(=O)[O-],2,,,,1750,False,Cn1cc[n+](C)c1.CC(=O)[O-],No changes
HYKok,293.15,101.3,956.1,Hou et al. (2011),Liquid,0.2607,"1,3-dimethylimidazolium acetate",,,Cn1cc[n+](C)c1.CC(=O)[O-],"1,3-dimethylimidazolium acetate",AAeBvd,CCO,ethanol,AAIsrh,Cn1cc[n+](C)c1,CC(=O)[O-],2,,,,1751,False,Cn1cc[n+](C)c1.CC(=O)[O-],No changes
HYKok,293.15,101.3,980.5,Hou et al. (2011),Liquid,0.3185,"1,3-dimethylimidazolium acetate",,,Cn1cc[n+](C)c1.CC(=O)[O-],"1,3-dimethylimidazolium acetate",AAeBvd,CCO,ethanol,AAIsrh,Cn1cc[n+](C)c1,CC(=O)[O-],2,,,,1752,False,Cn1cc[n+](C)c1.CC(=O)[O-],No changes
HYKok,293.15,101.3,1037.9,Hou et al. (2011),Liquid,0.4929,"1,3-dimethylimidazolium acetate",,,Cn1cc[n+](C)c1.CC(=O)[O-],"1,3-dimethylimidazolium acetate",AAeBvd,CCO,ethanol,AAIsrh,Cn1cc[n+](C)c1,CC(=O)[O-],2,,,,1753,False,Cn1cc[n+](C)c1.CC(=O)[O-],No changes
HYKok,293.15,101.3,1062.0,Hou et al. (2011),Liquid,0.5903,"1,3-dimethylimidazolium acetate",,,Cn1cc[n+](C)c1.CC(=O)[O-],"1,3-dimethylimidazolium acetate",AAeBvd,CCO,ethanol,AAIsrh,Cn1cc[n+](C)c1,CC(=O)[O-],2,,,,1754,False,Cn1cc[n+](C)c1.CC(=O)[O-],No changes
HYKok,293.15,101.3,1089.9,Hou et al. (2011),Liquid,0.7305,"1,3-dimethylimidazolium acetate",,,Cn1cc[n+](C)c1.CC(=O)[O-],"1,3-dimethylimidazolium acetate",AAeBvd,CCO,ethanol,AAIsrh,Cn1cc[n+](C)c1,CC(=O)[O-],2,,,,1755,False,Cn1cc[n+](C)c1.CC(=O)[O-],No changes
HYKok,293.15,101.3,1111.5,Hou et al. (2011),Liquid,0.8659,"1,3-dimethylimidazolium acetate",,,Cn1cc[n+](C)c1.CC(=O)[O-],"1,3-dimethylimidazolium acetate",AAeBvd,CCO,ethanol,AAIsrh,Cn1cc[n+](C)c1,CC(=O)[O-],2,,,,1756,False,Cn1cc[n+](C)c1.CC(=O)[O-],No changes
HYKok,293.15,101.3,1120.3,Hou et al. (2011),Liquid,0.9306,"1,3-dimethylimidazolium acetate",,,Cn1cc[n+](C)c1.CC(=O)[O-],"1,3-dimethylimidazolium acetate",AAeBvd,CCO,ethanol,AAIsrh,Cn1cc[n+](C)c1,CC(=O)[O-],2,,,,1757,False,Cn1cc[n+](C)c1.CC(=O)[O-],No changes
HYKok,293.15,101.3,1128.9,Hou et al. (2011),Liquid,1.0,"1,3-dimethylimidazolium acetate",,,Cn1cc[n+](C)c1.CC(=O)[O-],"1,3-dimethylimidazolium acetate",AAeBvd,CCO,ethanol,AAIsrh,Cn1cc[n+](C)c1,CC(=O)[O-],2,,,,1758,False,Cn1cc[n+](C)c1.CC(=O)[O-],No changes
KVRwB,298.15,100.0,1115.1,Wojtczuk et al. (2020),Liquid,1.0,ethanol,,,CC[n+]1ccn(C)c1.N#C[S-],1-ethyl-3-methylimidazolium thiocyanate,AAgcST,CCO,ethanol,AAIsrh,CC[n+]1ccn(C)c1,N#C[S-],2,0.0,,,1759,False,CC[n+]1ccn(C)c1.N#C[S-],No changes
KVRwB,298.15,100.0,1101.6,Wojtczuk et al. (2020),Liquid,0.8825000000000001,ethanol,,,CC[n+]1ccn(C)c1.N#C[S-],1-ethyl-3-methylimidazolium thiocyanate,AAgcST,CCO,ethanol,AAIsrh,CC[n+]1ccn(C)c1,N#C[S-],2,0.1175,,,1760,False,CC[n+]1ccn(C)c1.N#C[S-],No changes
KVRwB,298.15,100.0,1088.9,Wojtczuk et al. (2020),Liquid,0.7866,ethanol,,,CC[n+]1ccn(C)c1.N#C[S-],1-ethyl-3-methylimidazolium thiocyanate,AAgcST,CCO,ethanol,AAIsrh,CC[n+]1ccn(C)c1,N#C[S-],2,0.2134,,,1761,False,CC[n+]1ccn(C)c1.N#C[S-],No changes