setid,Temperature (K),Pressure (kPa),Density (kg/m3),reference,phases,Mole fraction,Mole fraction of compound name,Weight fraction,Weight fraction of compound name,IL_SMILES,IL_name,IL_ID,Solvent_SMILES,Solvent_name,Solvent_ID,IL_cation_SMILES,IL_anion_SMILES,IL_component_number,Mole fraction of solvent,IL_MW,Solvent_MW,Record_ID,Contains_Metal,Standardized_IL_SMILES,Changes
EwhCX,313.15,101.0,1235.9,Zhang et al. (2014d),Liquid,0.9001,"1,3-dimethylimidazolium dimethyl phosphate",,,Cn1cc[n+](C)c1.COP(=O)([O-])OC,"1,3-dimethylimidazolium dimethyl phosphate",AAqlaB,CCO,ethanol,AAIsrh,Cn1cc[n+](C)c1,COP(=O)([O-])OC,2,,,,2617,False,Cn1cc[n+](C)c1.COP(=O)([O-])OC,No changes
EwhCX,313.15,101.0,1251.0,Zhang et al. (2014d),Liquid,1.0,"1,3-dimethylimidazolium dimethyl phosphate",,,Cn1cc[n+](C)c1.COP(=O)([O-])OC,"1,3-dimethylimidazolium dimethyl phosphate",AAqlaB,CCO,ethanol,AAIsrh,Cn1cc[n+](C)c1,COP(=O)([O-])OC,2,,,,2618,False,Cn1cc[n+](C)c1.COP(=O)([O-])OC,No changes
EwhCX,318.15,101.0,769.0,Zhang et al. (2014d),Liquid,0.0,"1,3-dimethylimidazolium dimethyl phosphate",,,Cn1cc[n+](C)c1.COP(=O)([O-])OC,"1,3-dimethylimidazolium dimethyl phosphate",AAqlaB,CCO,ethanol,AAIsrh,Cn1cc[n+](C)c1,COP(=O)([O-])OC,2,,,,2619,False,Cn1cc[n+](C)c1.COP(=O)([O-])OC,No changes
EwhCX,318.15,101.0,899.1,Zhang et al. (2014d),Liquid,0.1,"1,3-dimethylimidazolium dimethyl phosphate",,,Cn1cc[n+](C)c1.COP(=O)([O-])OC,"1,3-dimethylimidazolium dimethyl phosphate",AAqlaB,CCO,ethanol,AAIsrh,Cn1cc[n+](C)c1,COP(=O)([O-])OC,2,,,,2620,False,Cn1cc[n+](C)c1.COP(=O)([O-])OC,No changes
EwhCX,318.15,101.0,985.8,Zhang et al. (2014d),Liquid,0.2001,"1,3-dimethylimidazolium dimethyl phosphate",,,Cn1cc[n+](C)c1.COP(=O)([O-])OC,"1,3-dimethylimidazolium dimethyl phosphate",AAqlaB,CCO,ethanol,AAIsrh,Cn1cc[n+](C)c1,COP(=O)([O-])OC,2,,,,2621,False,Cn1cc[n+](C)c1.COP(=O)([O-])OC,No changes
EwhCX,318.15,101.0,1049.7,Zhang et al. (2014d),Liquid,0.3008,"1,3-dimethylimidazolium dimethyl phosphate",,,Cn1cc[n+](C)c1.COP(=O)([O-])OC,"1,3-dimethylimidazolium dimethyl phosphate",AAqlaB,CCO,ethanol,AAIsrh,Cn1cc[n+](C)c1,COP(=O)([O-])OC,2,,,,2622,False,Cn1cc[n+](C)c1.COP(=O)([O-])OC,No changes
EwhCX,318.15,101.0,1097.5,Zhang et al. (2014d),Liquid,0.4,"1,3-dimethylimidazolium dimethyl phosphate",,,Cn1cc[n+](C)c1.COP(=O)([O-])OC,"1,3-dimethylimidazolium dimethyl phosphate",AAqlaB,CCO,ethanol,AAIsrh,Cn1cc[n+](C)c1,COP(=O)([O-])OC,2,,,,2623,False,Cn1cc[n+](C)c1.COP(=O)([O-])OC,No changes
EwhCX,318.15,101.0,1134.2,Zhang et al. (2014d),Liquid,0.4972,"1,3-dimethylimidazolium dimethyl phosphate",,,Cn1cc[n+](C)c1.COP(=O)([O-])OC,"1,3-dimethylimidazolium dimethyl phosphate",AAqlaB,CCO,ethanol,AAIsrh,Cn1cc[n+](C)c1,COP(=O)([O-])OC,2,,,,2624,False,Cn1cc[n+](C)c1.COP(=O)([O-])OC,No changes
EwhCX,318.15,101.0,1164.2,Zhang et al. (2014d),Liquid,0.5926,"1,3-dimethylimidazolium dimethyl phosphate",,,Cn1cc[n+](C)c1.COP(=O)([O-])OC,"1,3-dimethylimidazolium dimethyl phosphate",AAqlaB,CCO,ethanol,AAIsrh,Cn1cc[n+](C)c1,COP(=O)([O-])OC,2,,,,2625,False,Cn1cc[n+](C)c1.COP(=O)([O-])OC,No changes
EwhCX,318.15,101.0,1191.2,Zhang et al. (2014d),Liquid,0.6991,"1,3-dimethylimidazolium dimethyl phosphate",,,Cn1cc[n+](C)c1.COP(=O)([O-])OC,"1,3-dimethylimidazolium dimethyl phosphate",AAqlaB,CCO,ethanol,AAIsrh,Cn1cc[n+](C)c1,COP(=O)([O-])OC,2,,,,2626,False,Cn1cc[n+](C)c1.COP(=O)([O-])OC,No changes
EwhCX,318.15,101.0,1212.8,Zhang et al. (2014d),Liquid,0.7972,"1,3-dimethylimidazolium dimethyl phosphate",,,Cn1cc[n+](C)c1.COP(=O)([O-])OC,"1,3-dimethylimidazolium dimethyl phosphate",AAqlaB,CCO,ethanol,AAIsrh,Cn1cc[n+](C)c1,COP(=O)([O-])OC,2,,,,2627,False,Cn1cc[n+](C)c1.COP(=O)([O-])OC,No changes
EwhCX,318.15,101.0,1232.5,Zhang et al. (2014d),Liquid,0.9001,"1,3-dimethylimidazolium dimethyl phosphate",,,Cn1cc[n+](C)c1.COP(=O)([O-])OC,"1,3-dimethylimidazolium dimethyl phosphate",AAqlaB,CCO,ethanol,AAIsrh,Cn1cc[n+](C)c1,COP(=O)([O-])OC,2,,,,2628,False,Cn1cc[n+](C)c1.COP(=O)([O-])OC,No changes
EwhCX,318.15,101.0,1247.6,Zhang et al. (2014d),Liquid,1.0,"1,3-dimethylimidazolium dimethyl phosphate",,,Cn1cc[n+](C)c1.COP(=O)([O-])OC,"1,3-dimethylimidazolium dimethyl phosphate",AAqlaB,CCO,ethanol,AAIsrh,Cn1cc[n+](C)c1,COP(=O)([O-])OC,2,,,,2629,False,Cn1cc[n+](C)c1.COP(=O)([O-])OC,No changes
EwhCX,323.15,101.0,764.5,Zhang et al. (2014d),Liquid,0.0,"1,3-dimethylimidazolium dimethyl phosphate",,,Cn1cc[n+](C)c1.COP(=O)([O-])OC,"1,3-dimethylimidazolium dimethyl phosphate",AAqlaB,CCO,ethanol,AAIsrh,Cn1cc[n+](C)c1,COP(=O)([O-])OC,2,,,,2630,False,Cn1cc[n+](C)c1.COP(=O)([O-])OC,No changes
EwhCX,323.15,101.0,895.1,Zhang et al. (2014d),Liquid,0.1,"1,3-dimethylimidazolium dimethyl phosphate",,,Cn1cc[n+](C)c1.COP(=O)([O-])OC,"1,3-dimethylimidazolium dimethyl phosphate",AAqlaB,CCO,ethanol,AAIsrh,Cn1cc[n+](C)c1,COP(=O)([O-])OC,2,,,,2631,False,Cn1cc[n+](C)c1.COP(=O)([O-])OC,No changes
EwhCX,323.15,101.0,982.0,Zhang et al. (2014d),Liquid,0.2001,"1,3-dimethylimidazolium dimethyl phosphate",,,Cn1cc[n+](C)c1.COP(=O)([O-])OC,"1,3-dimethylimidazolium dimethyl phosphate",AAqlaB,CCO,ethanol,AAIsrh,Cn1cc[n+](C)c1,COP(=O)([O-])OC,2,,,,2632,False,Cn1cc[n+](C)c1.COP(=O)([O-])OC,No changes
EwhCX,323.15,101.0,1046.0,Zhang et al. (2014d),Liquid,0.3008,"1,3-dimethylimidazolium dimethyl phosphate",,,Cn1cc[n+](C)c1.COP(=O)([O-])OC,"1,3-dimethylimidazolium dimethyl phosphate",AAqlaB,CCO,ethanol,AAIsrh,Cn1cc[n+](C)c1,COP(=O)([O-])OC,2,,,,2633,False,Cn1cc[n+](C)c1.COP(=O)([O-])OC,No changes
EwhCX,323.15,101.0,1093.8,Zhang et al. (2014d),Liquid,0.4,"1,3-dimethylimidazolium dimethyl phosphate",,,Cn1cc[n+](C)c1.COP(=O)([O-])OC,"1,3-dimethylimidazolium dimethyl phosphate",AAqlaB,CCO,ethanol,AAIsrh,Cn1cc[n+](C)c1,COP(=O)([O-])OC,2,,,,2634,False,Cn1cc[n+](C)c1.COP(=O)([O-])OC,No changes
EwhCX,323.15,101.0,1130.7,Zhang et al. (2014d),Liquid,0.4972,"1,3-dimethylimidazolium dimethyl phosphate",,,Cn1cc[n+](C)c1.COP(=O)([O-])OC,"1,3-dimethylimidazolium dimethyl phosphate",AAqlaB,CCO,ethanol,AAIsrh,Cn1cc[n+](C)c1,COP(=O)([O-])OC,2,,,,2635,False,Cn1cc[n+](C)c1.COP(=O)([O-])OC,No changes
EwhCX,323.15,101.0,1160.7,Zhang et al. (2014d),Liquid,0.5926,"1,3-dimethylimidazolium dimethyl phosphate",,,Cn1cc[n+](C)c1.COP(=O)([O-])OC,"1,3-dimethylimidazolium dimethyl phosphate",AAqlaB,CCO,ethanol,AAIsrh,Cn1cc[n+](C)c1,COP(=O)([O-])OC,2,,,,2636,False,Cn1cc[n+](C)c1.COP(=O)([O-])OC,No changes
EwhCX,323.15,101.0,1187.8,Zhang et al. (2014d),Liquid,0.6991,"1,3-dimethylimidazolium dimethyl phosphate",,,Cn1cc[n+](C)c1.COP(=O)([O-])OC,"1,3-dimethylimidazolium dimethyl phosphate",AAqlaB,CCO,ethanol,AAIsrh,Cn1cc[n+](C)c1,COP(=O)([O-])OC,2,,,,2637,False,Cn1cc[n+](C)c1.COP(=O)([O-])OC,No changes
EwhCX,323.15,101.0,1209.3,Zhang et al. (2014d),Liquid,0.7972,"1,3-dimethylimidazolium dimethyl phosphate",,,Cn1cc[n+](C)c1.COP(=O)([O-])OC,"1,3-dimethylimidazolium dimethyl phosphate",AAqlaB,CCO,ethanol,AAIsrh,Cn1cc[n+](C)c1,COP(=O)([O-])OC,2,,,,2638,False,Cn1cc[n+](C)c1.COP(=O)([O-])OC,No changes
EwhCX,323.15,101.0,1229.1,Zhang et al. (2014d),Liquid,0.9001,"1,3-dimethylimidazolium dimethyl phosphate",,,Cn1cc[n+](C)c1.COP(=O)([O-])OC,"1,3-dimethylimidazolium dimethyl phosphate",AAqlaB,CCO,ethanol,AAIsrh,Cn1cc[n+](C)c1,COP(=O)([O-])OC,2,,,,2639,False,Cn1cc[n+](C)c1.COP(=O)([O-])OC,No changes
EwhCX,323.15,101.0,1244.2,Zhang et al. (2014d),Liquid,1.0,"1,3-dimethylimidazolium dimethyl phosphate",,,Cn1cc[n+](C)c1.COP(=O)([O-])OC,"1,3-dimethylimidazolium dimethyl phosphate",AAqlaB,CCO,ethanol,AAIsrh,Cn1cc[n+](C)c1,COP(=O)([O-])OC,2,,,,2640,False,Cn1cc[n+](C)c1.COP(=O)([O-])OC,No changes
LvZby,278.15,101.0,802.39,Salinas et al. (2015),Liquid,0.0,1-hexyl-3-methylimidazolium bis[(trifluoromethyl)sulfonyl]imide,,,CCCCCC[n+]1ccn(C)c1.O=S(=O)([N-]S(=O)(=O)C(F)(F)F)C(F)(F)F,1-hexyl-3-methylimidazolium bis[(trifluoromethyl)sulfonyl]imide,ABiCtA,CCO,ethanol,AAIsrh,CCCCCC[n+]1ccn(C)c1,O=S(=O)([N-]S(=O)(=O)C(F)(F)F)C(F)(F)F,2,,,,2641,False,CCCCCC[n+]1ccn(C)c1.O=S(=O)([N-]S(=O)(=O)C(F)(F)F)C(F)(F)F,No changes
LvZby,278.15,101.0,933.23,Salinas et al. (2015),Liquid,0.047,1-hexyl-3-methylimidazolium bis[(trifluoromethyl)sulfonyl]imide,,,CCCCCC[n+]1ccn(C)c1.O=S(=O)([N-]S(=O)(=O)C(F)(F)F)C(F)(F)F,1-hexyl-3-methylimidazolium bis[(trifluoromethyl)sulfonyl]imide,ABiCtA,CCO,ethanol,AAIsrh,CCCCCC[n+]1ccn(C)c1,O=S(=O)([N-]S(=O)(=O)C(F)(F)F)C(F)(F)F,2,,,,2642,False,CCCCCC[n+]1ccn(C)c1.O=S(=O)([N-]S(=O)(=O)C(F)(F)F)C(F)(F)F,No changes
LvZby,278.15,101.0,1026.67,Salinas et al. (2015),Liquid,0.097,1-hexyl-3-methylimidazolium bis[(trifluoromethyl)sulfonyl]imide,,,CCCCCC[n+]1ccn(C)c1.O=S(=O)([N-]S(=O)(=O)C(F)(F)F)C(F)(F)F,1-hexyl-3-methylimidazolium bis[(trifluoromethyl)sulfonyl]imide,ABiCtA,CCO,ethanol,AAIsrh,CCCCCC[n+]1ccn(C)c1,O=S(=O)([N-]S(=O)(=O)C(F)(F)F)C(F)(F)F,2,,,,2643,False,CCCCCC[n+]1ccn(C)c1.O=S(=O)([N-]S(=O)(=O)C(F)(F)F)C(F)(F)F,No changes
LvZby,278.15,101.0,1146.24,Salinas et al. (2015),Liquid,0.198,1-hexyl-3-methylimidazolium bis[(trifluoromethyl)sulfonyl]imide,,,CCCCCC[n+]1ccn(C)c1.O=S(=O)([N-]S(=O)(=O)C(F)(F)F)C(F)(F)F,1-hexyl-3-methylimidazolium bis[(trifluoromethyl)sulfonyl]imide,ABiCtA,CCO,ethanol,AAIsrh,CCCCCC[n+]1ccn(C)c1,O=S(=O)([N-]S(=O)(=O)C(F)(F)F)C(F)(F)F,2,,,,2644,False,CCCCCC[n+]1ccn(C)c1.O=S(=O)([N-]S(=O)(=O)C(F)(F)F)C(F)(F)F,No changes
LvZby,278.15,101.0,1215.04,Salinas et al. (2015),Liquid,0.292,1-hexyl-3-methylimidazolium bis[(trifluoromethyl)sulfonyl]imide,,,CCCCCC[n+]1ccn(C)c1.O=S(=O)([N-]S(=O)(=O)C(F)(F)F)C(F)(F)F,1-hexyl-3-methylimidazolium bis[(trifluoromethyl)sulfonyl]imide,ABiCtA,CCO,ethanol,AAIsrh,CCCCCC[n+]1ccn(C)c1,O=S(=O)([N-]S(=O)(=O)C(F)(F)F)C(F)(F)F,2,,,,2645,False,CCCCCC[n+]1ccn(C)c1.O=S(=O)([N-]S(=O)(=O)C(F)(F)F)C(F)(F)F,No changes
LvZby,278.15,101.0,1263.14,Salinas et al. (2015),Liquid,0.39,1-hexyl-3-methylimidazolium bis[(trifluoromethyl)sulfonyl]imide,,,CCCCCC[n+]1ccn(C)c1.O=S(=O)([N-]S(=O)(=O)C(F)(F)F)C(F)(F)F,1-hexyl-3-methylimidazolium bis[(trifluoromethyl)sulfonyl]imide,ABiCtA,CCO,ethanol,AAIsrh,CCCCCC[n+]1ccn(C)c1,O=S(=O)([N-]S(=O)(=O)C(F)(F)F)C(F)(F)F,2,,,,2646,False,CCCCCC[n+]1ccn(C)c1.O=S(=O)([N-]S(=O)(=O)C(F)(F)F)C(F)(F)F,No changes
LvZby,278.15,101.0,1292.55,Salinas et al. (2015),Liquid,0.47,1-hexyl-3-methylimidazolium bis[(trifluoromethyl)sulfonyl]imide,,,CCCCCC[n+]1ccn(C)c1.O=S(=O)([N-]S(=O)(=O)C(F)(F)F)C(F)(F)F,1-hexyl-3-methylimidazolium bis[(trifluoromethyl)sulfonyl]imide,ABiCtA,CCO,ethanol,AAIsrh,CCCCCC[n+]1ccn(C)c1,O=S(=O)([N-]S(=O)(=O)C(F)(F)F)C(F)(F)F,2,,,,2647,False,CCCCCC[n+]1ccn(C)c1.O=S(=O)([N-]S(=O)(=O)C(F)(F)F)C(F)(F)F,No changes
LvZby,278.15,101.0,1327.21,Salinas et al. (2015),Liquid,0.596,1-hexyl-3-methylimidazolium bis[(trifluoromethyl)sulfonyl]imide,,,CCCCCC[n+]1ccn(C)c1.O=S(=O)([N-]S(=O)(=O)C(F)(F)F)C(F)(F)F,1-hexyl-3-methylimidazolium bis[(trifluoromethyl)sulfonyl]imide,ABiCtA,CCO,ethanol,AAIsrh,CCCCCC[n+]1ccn(C)c1,O=S(=O)([N-]S(=O)(=O)C(F)(F)F)C(F)(F)F,2,,,,2648,False,CCCCCC[n+]1ccn(C)c1.O=S(=O)([N-]S(=O)(=O)C(F)(F)F)C(F)(F)F,No changes
LvZby,278.15,101.0,1347.34,Salinas et al. (2015),Liquid,0.694,1-hexyl-3-methylimidazolium bis[(trifluoromethyl)sulfonyl]imide,,,CCCCCC[n+]1ccn(C)c1.O=S(=O)([N-]S(=O)(=O)C(F)(F)F)C(F)(F)F,1-hexyl-3-methylimidazolium bis[(trifluoromethyl)sulfonyl]imide,ABiCtA,CCO,ethanol,AAIsrh,CCCCCC[n+]1ccn(C)c1,O=S(=O)([N-]S(=O)(=O)C(F)(F)F)C(F)(F)F,2,,,,2649,False,CCCCCC[n+]1ccn(C)c1.O=S(=O)([N-]S(=O)(=O)C(F)(F)F)C(F)(F)F,No changes
LvZby,278.15,101.0,1364.86,Salinas et al. (2015),Liquid,0.799,1-hexyl-3-methylimidazolium bis[(trifluoromethyl)sulfonyl]imide,,,CCCCCC[n+]1ccn(C)c1.O=S(=O)([N-]S(=O)(=O)C(F)(F)F)C(F)(F)F,1-hexyl-3-methylimidazolium bis[(trifluoromethyl)sulfonyl]imide,ABiCtA,CCO,ethanol,AAIsrh,CCCCCC[n+]1ccn(C)c1,O=S(=O)([N-]S(=O)(=O)C(F)(F)F)C(F)(F)F,2,,,,2650,False,CCCCCC[n+]1ccn(C)c1.O=S(=O)([N-]S(=O)(=O)C(F)(F)F)C(F)(F)F,No changes
LvZby,278.15,101.0,1379.2,Salinas et al. (2015),Liquid,0.903,1-hexyl-3-methylimidazolium bis[(trifluoromethyl)sulfonyl]imide,,,CCCCCC[n+]1ccn(C)c1.O=S(=O)([N-]S(=O)(=O)C(F)(F)F)C(F)(F)F,1-hexyl-3-methylimidazolium bis[(trifluoromethyl)sulfonyl]imide,ABiCtA,CCO,ethanol,AAIsrh,CCCCCC[n+]1ccn(C)c1,O=S(=O)([N-]S(=O)(=O)C(F)(F)F)C(F)(F)F,2,,,,2651,False,CCCCCC[n+]1ccn(C)c1.O=S(=O)([N-]S(=O)(=O)C(F)(F)F)C(F)(F)F,No changes
LvZby,278.15,101.0,1390.3,Salinas et al. (2015),Liquid,1.0,1-hexyl-3-methylimidazolium bis[(trifluoromethyl)sulfonyl]imide,,,CCCCCC[n+]1ccn(C)c1.O=S(=O)([N-]S(=O)(=O)C(F)(F)F)C(F)(F)F,1-hexyl-3-methylimidazolium bis[(trifluoromethyl)sulfonyl]imide,ABiCtA,CCO,ethanol,AAIsrh,CCCCCC[n+]1ccn(C)c1,O=S(=O)([N-]S(=O)(=O)C(F)(F)F)C(F)(F)F,2,,,,2652,False,CCCCCC[n+]1ccn(C)c1.O=S(=O)([N-]S(=O)(=O)C(F)(F)F)C(F)(F)F,No changes
LvZby,298.15,101.0,785.32,Salinas et al. (2015),Liquid,0.0,1-hexyl-3-methylimidazolium bis[(trifluoromethyl)sulfonyl]imide,,,CCCCCC[n+]1ccn(C)c1.O=S(=O)([N-]S(=O)(=O)C(F)(F)F)C(F)(F)F,1-hexyl-3-methylimidazolium bis[(trifluoromethyl)sulfonyl]imide,ABiCtA,CCO,ethanol,AAIsrh,CCCCCC[n+]1ccn(C)c1,O=S(=O)([N-]S(=O)(=O)C(F)(F)F)C(F)(F)F,2,,,,2653,False,CCCCCC[n+]1ccn(C)c1.O=S(=O)([N-]S(=O)(=O)C(F)(F)F)C(F)(F)F,No changes
LvZby,298.15,101.0,915.22,Salinas et al. (2015),Liquid,0.047,1-hexyl-3-methylimidazolium bis[(trifluoromethyl)sulfonyl]imide,,,CCCCCC[n+]1ccn(C)c1.O=S(=O)([N-]S(=O)(=O)C(F)(F)F)C(F)(F)F,1-hexyl-3-methylimidazolium bis[(trifluoromethyl)sulfonyl]imide,ABiCtA,CCO,ethanol,AAIsrh,CCCCCC[n+]1ccn(C)c1,O=S(=O)([N-]S(=O)(=O)C(F)(F)F)C(F)(F)F,2,,,,2654,False,CCCCCC[n+]1ccn(C)c1.O=S(=O)([N-]S(=O)(=O)C(F)(F)F)C(F)(F)F,No changes
LvZby,298.15,101.0,1008.17,Salinas et al. (2015),Liquid,0.097,1-hexyl-3-methylimidazolium bis[(trifluoromethyl)sulfonyl]imide,,,CCCCCC[n+]1ccn(C)c1.O=S(=O)([N-]S(=O)(=O)C(F)(F)F)C(F)(F)F,1-hexyl-3-methylimidazolium bis[(trifluoromethyl)sulfonyl]imide,ABiCtA,CCO,ethanol,AAIsrh,CCCCCC[n+]1ccn(C)c1,O=S(=O)([N-]S(=O)(=O)C(F)(F)F)C(F)(F)F,2,,,,2655,False,CCCCCC[n+]1ccn(C)c1.O=S(=O)([N-]S(=O)(=O)C(F)(F)F)C(F)(F)F,No changes
LvZby,298.15,101.0,1127.27,Salinas et al. (2015),Liquid,0.198,1-hexyl-3-methylimidazolium bis[(trifluoromethyl)sulfonyl]imide,,,CCCCCC[n+]1ccn(C)c1.O=S(=O)([N-]S(=O)(=O)C(F)(F)F)C(F)(F)F,1-hexyl-3-methylimidazolium bis[(trifluoromethyl)sulfonyl]imide,ABiCtA,CCO,ethanol,AAIsrh,CCCCCC[n+]1ccn(C)c1,O=S(=O)([N-]S(=O)(=O)C(F)(F)F)C(F)(F)F,2,,,,2656,False,CCCCCC[n+]1ccn(C)c1.O=S(=O)([N-]S(=O)(=O)C(F)(F)F)C(F)(F)F,No changes
LvZby,298.15,101.0,1195.96,Salinas et al. (2015),Liquid,0.292,1-hexyl-3-methylimidazolium bis[(trifluoromethyl)sulfonyl]imide,,,CCCCCC[n+]1ccn(C)c1.O=S(=O)([N-]S(=O)(=O)C(F)(F)F)C(F)(F)F,1-hexyl-3-methylimidazolium bis[(trifluoromethyl)sulfonyl]imide,ABiCtA,CCO,ethanol,AAIsrh,CCCCCC[n+]1ccn(C)c1,O=S(=O)([N-]S(=O)(=O)C(F)(F)F)C(F)(F)F,2,,,,2657,False,CCCCCC[n+]1ccn(C)c1.O=S(=O)([N-]S(=O)(=O)C(F)(F)F)C(F)(F)F,No changes
LvZby,298.15,101.0,1244.05,Salinas et al. (2015),Liquid,0.39,1-hexyl-3-methylimidazolium bis[(trifluoromethyl)sulfonyl]imide,,,CCCCCC[n+]1ccn(C)c1.O=S(=O)([N-]S(=O)(=O)C(F)(F)F)C(F)(F)F,1-hexyl-3-methylimidazolium bis[(trifluoromethyl)sulfonyl]imide,ABiCtA,CCO,ethanol,AAIsrh,CCCCCC[n+]1ccn(C)c1,O=S(=O)([N-]S(=O)(=O)C(F)(F)F)C(F)(F)F,2,,,,2658,False,CCCCCC[n+]1ccn(C)c1.O=S(=O)([N-]S(=O)(=O)C(F)(F)F)C(F)(F)F,No changes
LvZby,298.15,101.0,1273.5,Salinas et al. (2015),Liquid,0.47,1-hexyl-3-methylimidazolium bis[(trifluoromethyl)sulfonyl]imide,,,CCCCCC[n+]1ccn(C)c1.O=S(=O)([N-]S(=O)(=O)C(F)(F)F)C(F)(F)F,1-hexyl-3-methylimidazolium bis[(trifluoromethyl)sulfonyl]imide,ABiCtA,CCO,ethanol,AAIsrh,CCCCCC[n+]1ccn(C)c1,O=S(=O)([N-]S(=O)(=O)C(F)(F)F)C(F)(F)F,2,,,,2659,False,CCCCCC[n+]1ccn(C)c1.O=S(=O)([N-]S(=O)(=O)C(F)(F)F)C(F)(F)F,No changes
LvZby,298.15,101.0,1308.27,Salinas et al. (2015),Liquid,0.596,1-hexyl-3-methylimidazolium bis[(trifluoromethyl)sulfonyl]imide,,,CCCCCC[n+]1ccn(C)c1.O=S(=O)([N-]S(=O)(=O)C(F)(F)F)C(F)(F)F,1-hexyl-3-methylimidazolium bis[(trifluoromethyl)sulfonyl]imide,ABiCtA,CCO,ethanol,AAIsrh,CCCCCC[n+]1ccn(C)c1,O=S(=O)([N-]S(=O)(=O)C(F)(F)F)C(F)(F)F,2,,,,2660,False,CCCCCC[n+]1ccn(C)c1.O=S(=O)([N-]S(=O)(=O)C(F)(F)F)C(F)(F)F,No changes
LvZby,298.15,101.0,1328.48,Salinas et al. (2015),Liquid,0.694,1-hexyl-3-methylimidazolium bis[(trifluoromethyl)sulfonyl]imide,,,CCCCCC[n+]1ccn(C)c1.O=S(=O)([N-]S(=O)(=O)C(F)(F)F)C(F)(F)F,1-hexyl-3-methylimidazolium bis[(trifluoromethyl)sulfonyl]imide,ABiCtA,CCO,ethanol,AAIsrh,CCCCCC[n+]1ccn(C)c1,O=S(=O)([N-]S(=O)(=O)C(F)(F)F)C(F)(F)F,2,,,,2661,False,CCCCCC[n+]1ccn(C)c1.O=S(=O)([N-]S(=O)(=O)C(F)(F)F)C(F)(F)F,No changes
LvZby,298.15,101.0,1346.07,Salinas et al. (2015),Liquid,0.799,1-hexyl-3-methylimidazolium bis[(trifluoromethyl)sulfonyl]imide,,,CCCCCC[n+]1ccn(C)c1.O=S(=O)([N-]S(=O)(=O)C(F)(F)F)C(F)(F)F,1-hexyl-3-methylimidazolium bis[(trifluoromethyl)sulfonyl]imide,ABiCtA,CCO,ethanol,AAIsrh,CCCCCC[n+]1ccn(C)c1,O=S(=O)([N-]S(=O)(=O)C(F)(F)F)C(F)(F)F,2,,,,2662,False,CCCCCC[n+]1ccn(C)c1.O=S(=O)([N-]S(=O)(=O)C(F)(F)F)C(F)(F)F,No changes
LvZby,298.15,101.0,1360.48,Salinas et al. (2015),Liquid,0.903,1-hexyl-3-methylimidazolium bis[(trifluoromethyl)sulfonyl]imide,,,CCCCCC[n+]1ccn(C)c1.O=S(=O)([N-]S(=O)(=O)C(F)(F)F)C(F)(F)F,1-hexyl-3-methylimidazolium bis[(trifluoromethyl)sulfonyl]imide,ABiCtA,CCO,ethanol,AAIsrh,CCCCCC[n+]1ccn(C)c1,O=S(=O)([N-]S(=O)(=O)C(F)(F)F)C(F)(F)F,2,,,,2663,False,CCCCCC[n+]1ccn(C)c1.O=S(=O)([N-]S(=O)(=O)C(F)(F)F)C(F)(F)F,No changes
LvZby,298.15,101.0,1371.64,Salinas et al. (2015),Liquid,1.0,1-hexyl-3-methylimidazolium bis[(trifluoromethyl)sulfonyl]imide,,,CCCCCC[n+]1ccn(C)c1.O=S(=O)([N-]S(=O)(=O)C(F)(F)F)C(F)(F)F,1-hexyl-3-methylimidazolium bis[(trifluoromethyl)sulfonyl]imide,ABiCtA,CCO,ethanol,AAIsrh,CCCCCC[n+]1ccn(C)c1,O=S(=O)([N-]S(=O)(=O)C(F)(F)F)C(F)(F)F,2,,,,2664,False,CCCCCC[n+]1ccn(C)c1.O=S(=O)([N-]S(=O)(=O)C(F)(F)F)C(F)(F)F,No changes
LvZby,318.15,101.0,767.84,Salinas et al. (2015),Liquid,0.0,1-hexyl-3-methylimidazolium bis[(trifluoromethyl)sulfonyl]imide,,,CCCCCC[n+]1ccn(C)c1.O=S(=O)([N-]S(=O)(=O)C(F)(F)F)C(F)(F)F,1-hexyl-3-methylimidazolium bis[(trifluoromethyl)sulfonyl]imide,ABiCtA,CCO,ethanol,AAIsrh,CCCCCC[n+]1ccn(C)c1,O=S(=O)([N-]S(=O)(=O)C(F)(F)F)C(F)(F)F,2,,,,2665,False,CCCCCC[n+]1ccn(C)c1.O=S(=O)([N-]S(=O)(=O)C(F)(F)F)C(F)(F)F,No changes
LvZby,318.15,101.0,896.92,Salinas et al. (2015),Liquid,0.047,1-hexyl-3-methylimidazolium bis[(trifluoromethyl)sulfonyl]imide,,,CCCCCC[n+]1ccn(C)c1.O=S(=O)([N-]S(=O)(=O)C(F)(F)F)C(F)(F)F,1-hexyl-3-methylimidazolium bis[(trifluoromethyl)sulfonyl]imide,ABiCtA,CCO,ethanol,AAIsrh,CCCCCC[n+]1ccn(C)c1,O=S(=O)([N-]S(=O)(=O)C(F)(F)F)C(F)(F)F,2,,,,2666,False,CCCCCC[n+]1ccn(C)c1.O=S(=O)([N-]S(=O)(=O)C(F)(F)F)C(F)(F)F,No changes
LvZby,318.15,101.0,989.44,Salinas et al. (2015),Liquid,0.097,1-hexyl-3-methylimidazolium bis[(trifluoromethyl)sulfonyl]imide,,,CCCCCC[n+]1ccn(C)c1.O=S(=O)([N-]S(=O)(=O)C(F)(F)F)C(F)(F)F,1-hexyl-3-methylimidazolium bis[(trifluoromethyl)sulfonyl]imide,ABiCtA,CCO,ethanol,AAIsrh,CCCCCC[n+]1ccn(C)c1,O=S(=O)([N-]S(=O)(=O)C(F)(F)F)C(F)(F)F,2,,,,2667,False,CCCCCC[n+]1ccn(C)c1.O=S(=O)([N-]S(=O)(=O)C(F)(F)F)C(F)(F)F,No changes
LvZby,318.15,101.0,1108.22,Salinas et al. (2015),Liquid,0.198,1-hexyl-3-methylimidazolium bis[(trifluoromethyl)sulfonyl]imide,,,CCCCCC[n+]1ccn(C)c1.O=S(=O)([N-]S(=O)(=O)C(F)(F)F)C(F)(F)F,1-hexyl-3-methylimidazolium bis[(trifluoromethyl)sulfonyl]imide,ABiCtA,CCO,ethanol,AAIsrh,CCCCCC[n+]1ccn(C)c1,O=S(=O)([N-]S(=O)(=O)C(F)(F)F)C(F)(F)F,2,,,,2668,False,CCCCCC[n+]1ccn(C)c1.O=S(=O)([N-]S(=O)(=O)C(F)(F)F)C(F)(F)F,No changes
LvZby,318.15,101.0,1176.89,Salinas et al. (2015),Liquid,0.292,1-hexyl-3-methylimidazolium bis[(trifluoromethyl)sulfonyl]imide,,,CCCCCC[n+]1ccn(C)c1.O=S(=O)([N-]S(=O)(=O)C(F)(F)F)C(F)(F)F,1-hexyl-3-methylimidazolium bis[(trifluoromethyl)sulfonyl]imide,ABiCtA,CCO,ethanol,AAIsrh,CCCCCC[n+]1ccn(C)c1,O=S(=O)([N-]S(=O)(=O)C(F)(F)F)C(F)(F)F,2,,,,2669,False,CCCCCC[n+]1ccn(C)c1.O=S(=O)([N-]S(=O)(=O)C(F)(F)F)C(F)(F)F,No changes