setid,Temperature (K),Pressure (kPa),Density (kg/m3),reference,phases,Mole fraction,Mole fraction of compound name,Weight fraction,Weight fraction of compound name,IL_SMILES,IL_name,IL_ID,Solvent_SMILES,Solvent_name,Solvent_ID,IL_cation_SMILES,IL_anion_SMILES,IL_component_number,Mole fraction of solvent,IL_MW,Solvent_MW,Record_ID,Contains_Metal,Standardized_IL_SMILES,Changes
RYgAi,303.15,101.0,1021.7,Zhang et al. (2014d),Liquid,0.2991,"1,3-dimethylimidazolium dimethyl phosphate",,,Cn1cc[n+](C)c1.COP(=O)([O-])OC,"1,3-dimethylimidazolium dimethyl phosphate",AAqlaB,CC(C)O,propan-2-ol,AALcwx,Cn1cc[n+](C)c1,COP(=O)([O-])OC,2,,,,1328,False,Cn1cc[n+](C)c1.COP(=O)([O-])OC,No changes
RYgAi,303.15,101.0,1074.2,Zhang et al. (2014d),Liquid,0.4,"1,3-dimethylimidazolium dimethyl phosphate",,,Cn1cc[n+](C)c1.COP(=O)([O-])OC,"1,3-dimethylimidazolium dimethyl phosphate",AAqlaB,CC(C)O,propan-2-ol,AALcwx,Cn1cc[n+](C)c1,COP(=O)([O-])OC,2,,,,1329,False,Cn1cc[n+](C)c1.COP(=O)([O-])OC,No changes
RYgAi,303.15,101.0,1117.6,Zhang et al. (2014d),Liquid,0.4998,"1,3-dimethylimidazolium dimethyl phosphate",,,Cn1cc[n+](C)c1.COP(=O)([O-])OC,"1,3-dimethylimidazolium dimethyl phosphate",AAqlaB,CC(C)O,propan-2-ol,AALcwx,Cn1cc[n+](C)c1,COP(=O)([O-])OC,2,,,,1330,False,Cn1cc[n+](C)c1.COP(=O)([O-])OC,No changes
RYgAi,303.15,101.0,1153.5,Zhang et al. (2014d),Liquid,0.598,"1,3-dimethylimidazolium dimethyl phosphate",,,Cn1cc[n+](C)c1.COP(=O)([O-])OC,"1,3-dimethylimidazolium dimethyl phosphate",AAqlaB,CC(C)O,propan-2-ol,AALcwx,Cn1cc[n+](C)c1,COP(=O)([O-])OC,2,,,,1331,False,Cn1cc[n+](C)c1.COP(=O)([O-])OC,No changes
RYgAi,303.15,101.0,1185.6,Zhang et al. (2014d),Liquid,0.699,"1,3-dimethylimidazolium dimethyl phosphate",,,Cn1cc[n+](C)c1.COP(=O)([O-])OC,"1,3-dimethylimidazolium dimethyl phosphate",AAqlaB,CC(C)O,propan-2-ol,AALcwx,Cn1cc[n+](C)c1,COP(=O)([O-])OC,2,,,,1332,False,Cn1cc[n+](C)c1.COP(=O)([O-])OC,No changes
RYgAi,303.15,101.0,1212.3,Zhang et al. (2014d),Liquid,0.7968,"1,3-dimethylimidazolium dimethyl phosphate",,,Cn1cc[n+](C)c1.COP(=O)([O-])OC,"1,3-dimethylimidazolium dimethyl phosphate",AAqlaB,CC(C)O,propan-2-ol,AALcwx,Cn1cc[n+](C)c1,COP(=O)([O-])OC,2,,,,1333,False,Cn1cc[n+](C)c1.COP(=O)([O-])OC,No changes
RYgAi,303.15,101.0,1236.8,Zhang et al. (2014d),Liquid,0.9001,"1,3-dimethylimidazolium dimethyl phosphate",,,Cn1cc[n+](C)c1.COP(=O)([O-])OC,"1,3-dimethylimidazolium dimethyl phosphate",AAqlaB,CC(C)O,propan-2-ol,AALcwx,Cn1cc[n+](C)c1,COP(=O)([O-])OC,2,,,,1334,False,Cn1cc[n+](C)c1.COP(=O)([O-])OC,No changes
RYgAi,303.15,101.0,1257.8,Zhang et al. (2014d),Liquid,1.0,"1,3-dimethylimidazolium dimethyl phosphate",,,Cn1cc[n+](C)c1.COP(=O)([O-])OC,"1,3-dimethylimidazolium dimethyl phosphate",AAqlaB,CC(C)O,propan-2-ol,AALcwx,Cn1cc[n+](C)c1,COP(=O)([O-])OC,2,,,,1335,False,Cn1cc[n+](C)c1.COP(=O)([O-])OC,No changes
RYgAi,308.15,101.0,772.4,Zhang et al. (2014d),Liquid,0.0,"1,3-dimethylimidazolium dimethyl phosphate",,,Cn1cc[n+](C)c1.COP(=O)([O-])OC,"1,3-dimethylimidazolium dimethyl phosphate",AAqlaB,CC(C)O,propan-2-ol,AALcwx,Cn1cc[n+](C)c1,COP(=O)([O-])OC,2,,,,1336,False,Cn1cc[n+](C)c1.COP(=O)([O-])OC,No changes
RYgAi,308.15,101.0,876.7,Zhang et al. (2014d),Liquid,0.0987,"1,3-dimethylimidazolium dimethyl phosphate",,,Cn1cc[n+](C)c1.COP(=O)([O-])OC,"1,3-dimethylimidazolium dimethyl phosphate",AAqlaB,CC(C)O,propan-2-ol,AALcwx,Cn1cc[n+](C)c1,COP(=O)([O-])OC,2,,,,1337,False,Cn1cc[n+](C)c1.COP(=O)([O-])OC,No changes
RYgAi,308.15,101.0,955.6,Zhang et al. (2014d),Liquid,0.2003,"1,3-dimethylimidazolium dimethyl phosphate",,,Cn1cc[n+](C)c1.COP(=O)([O-])OC,"1,3-dimethylimidazolium dimethyl phosphate",AAqlaB,CC(C)O,propan-2-ol,AALcwx,Cn1cc[n+](C)c1,COP(=O)([O-])OC,2,,,,1338,False,Cn1cc[n+](C)c1.COP(=O)([O-])OC,No changes
RYgAi,308.15,101.0,1018.0,Zhang et al. (2014d),Liquid,0.2991,"1,3-dimethylimidazolium dimethyl phosphate",,,Cn1cc[n+](C)c1.COP(=O)([O-])OC,"1,3-dimethylimidazolium dimethyl phosphate",AAqlaB,CC(C)O,propan-2-ol,AALcwx,Cn1cc[n+](C)c1,COP(=O)([O-])OC,2,,,,1339,False,Cn1cc[n+](C)c1.COP(=O)([O-])OC,No changes
RYgAi,308.15,101.0,1070.6,Zhang et al. (2014d),Liquid,0.4,"1,3-dimethylimidazolium dimethyl phosphate",,,Cn1cc[n+](C)c1.COP(=O)([O-])OC,"1,3-dimethylimidazolium dimethyl phosphate",AAqlaB,CC(C)O,propan-2-ol,AALcwx,Cn1cc[n+](C)c1,COP(=O)([O-])OC,2,,,,1340,False,Cn1cc[n+](C)c1.COP(=O)([O-])OC,No changes
RYgAi,308.15,101.0,1114.0,Zhang et al. (2014d),Liquid,0.4998,"1,3-dimethylimidazolium dimethyl phosphate",,,Cn1cc[n+](C)c1.COP(=O)([O-])OC,"1,3-dimethylimidazolium dimethyl phosphate",AAqlaB,CC(C)O,propan-2-ol,AALcwx,Cn1cc[n+](C)c1,COP(=O)([O-])OC,2,,,,1341,False,Cn1cc[n+](C)c1.COP(=O)([O-])OC,No changes
RYgAi,308.15,101.0,1150.1,Zhang et al. (2014d),Liquid,0.598,"1,3-dimethylimidazolium dimethyl phosphate",,,Cn1cc[n+](C)c1.COP(=O)([O-])OC,"1,3-dimethylimidazolium dimethyl phosphate",AAqlaB,CC(C)O,propan-2-ol,AALcwx,Cn1cc[n+](C)c1,COP(=O)([O-])OC,2,,,,1342,False,Cn1cc[n+](C)c1.COP(=O)([O-])OC,No changes
RYgAi,308.15,101.0,1182.2,Zhang et al. (2014d),Liquid,0.699,"1,3-dimethylimidazolium dimethyl phosphate",,,Cn1cc[n+](C)c1.COP(=O)([O-])OC,"1,3-dimethylimidazolium dimethyl phosphate",AAqlaB,CC(C)O,propan-2-ol,AALcwx,Cn1cc[n+](C)c1,COP(=O)([O-])OC,2,,,,1343,False,Cn1cc[n+](C)c1.COP(=O)([O-])OC,No changes
RYgAi,308.15,101.0,1208.8,Zhang et al. (2014d),Liquid,0.7968,"1,3-dimethylimidazolium dimethyl phosphate",,,Cn1cc[n+](C)c1.COP(=O)([O-])OC,"1,3-dimethylimidazolium dimethyl phosphate",AAqlaB,CC(C)O,propan-2-ol,AALcwx,Cn1cc[n+](C)c1,COP(=O)([O-])OC,2,,,,1344,False,Cn1cc[n+](C)c1.COP(=O)([O-])OC,No changes
RYgAi,308.15,101.0,1233.4,Zhang et al. (2014d),Liquid,0.9001,"1,3-dimethylimidazolium dimethyl phosphate",,,Cn1cc[n+](C)c1.COP(=O)([O-])OC,"1,3-dimethylimidazolium dimethyl phosphate",AAqlaB,CC(C)O,propan-2-ol,AALcwx,Cn1cc[n+](C)c1,COP(=O)([O-])OC,2,,,,1345,False,Cn1cc[n+](C)c1.COP(=O)([O-])OC,No changes
RYgAi,308.15,101.0,1254.4,Zhang et al. (2014d),Liquid,1.0,"1,3-dimethylimidazolium dimethyl phosphate",,,Cn1cc[n+](C)c1.COP(=O)([O-])OC,"1,3-dimethylimidazolium dimethyl phosphate",AAqlaB,CC(C)O,propan-2-ol,AALcwx,Cn1cc[n+](C)c1,COP(=O)([O-])OC,2,,,,1346,False,Cn1cc[n+](C)c1.COP(=O)([O-])OC,No changes
RYgAi,313.15,101.0,768.0,Zhang et al. (2014d),Liquid,0.0,"1,3-dimethylimidazolium dimethyl phosphate",,,Cn1cc[n+](C)c1.COP(=O)([O-])OC,"1,3-dimethylimidazolium dimethyl phosphate",AAqlaB,CC(C)O,propan-2-ol,AALcwx,Cn1cc[n+](C)c1,COP(=O)([O-])OC,2,,,,1347,False,Cn1cc[n+](C)c1.COP(=O)([O-])OC,No changes
RYgAi,313.15,101.0,872.7,Zhang et al. (2014d),Liquid,0.0987,"1,3-dimethylimidazolium dimethyl phosphate",,,Cn1cc[n+](C)c1.COP(=O)([O-])OC,"1,3-dimethylimidazolium dimethyl phosphate",AAqlaB,CC(C)O,propan-2-ol,AALcwx,Cn1cc[n+](C)c1,COP(=O)([O-])OC,2,,,,1348,False,Cn1cc[n+](C)c1.COP(=O)([O-])OC,No changes
RYgAi,313.15,101.0,951.9,Zhang et al. (2014d),Liquid,0.2003,"1,3-dimethylimidazolium dimethyl phosphate",,,Cn1cc[n+](C)c1.COP(=O)([O-])OC,"1,3-dimethylimidazolium dimethyl phosphate",AAqlaB,CC(C)O,propan-2-ol,AALcwx,Cn1cc[n+](C)c1,COP(=O)([O-])OC,2,,,,1349,False,Cn1cc[n+](C)c1.COP(=O)([O-])OC,No changes
RYgAi,313.15,101.0,1014.4,Zhang et al. (2014d),Liquid,0.2991,"1,3-dimethylimidazolium dimethyl phosphate",,,Cn1cc[n+](C)c1.COP(=O)([O-])OC,"1,3-dimethylimidazolium dimethyl phosphate",AAqlaB,CC(C)O,propan-2-ol,AALcwx,Cn1cc[n+](C)c1,COP(=O)([O-])OC,2,,,,1350,False,Cn1cc[n+](C)c1.COP(=O)([O-])OC,No changes
RYgAi,313.15,101.0,1067.0,Zhang et al. (2014d),Liquid,0.4,"1,3-dimethylimidazolium dimethyl phosphate",,,Cn1cc[n+](C)c1.COP(=O)([O-])OC,"1,3-dimethylimidazolium dimethyl phosphate",AAqlaB,CC(C)O,propan-2-ol,AALcwx,Cn1cc[n+](C)c1,COP(=O)([O-])OC,2,,,,1351,False,Cn1cc[n+](C)c1.COP(=O)([O-])OC,No changes
RYgAi,313.15,101.0,1110.5,Zhang et al. (2014d),Liquid,0.4998,"1,3-dimethylimidazolium dimethyl phosphate",,,Cn1cc[n+](C)c1.COP(=O)([O-])OC,"1,3-dimethylimidazolium dimethyl phosphate",AAqlaB,CC(C)O,propan-2-ol,AALcwx,Cn1cc[n+](C)c1,COP(=O)([O-])OC,2,,,,1352,False,Cn1cc[n+](C)c1.COP(=O)([O-])OC,No changes
RYgAi,313.15,101.0,1146.6,Zhang et al. (2014d),Liquid,0.598,"1,3-dimethylimidazolium dimethyl phosphate",,,Cn1cc[n+](C)c1.COP(=O)([O-])OC,"1,3-dimethylimidazolium dimethyl phosphate",AAqlaB,CC(C)O,propan-2-ol,AALcwx,Cn1cc[n+](C)c1,COP(=O)([O-])OC,2,,,,1353,False,Cn1cc[n+](C)c1.COP(=O)([O-])OC,No changes
RYgAi,313.15,101.0,1178.7,Zhang et al. (2014d),Liquid,0.699,"1,3-dimethylimidazolium dimethyl phosphate",,,Cn1cc[n+](C)c1.COP(=O)([O-])OC,"1,3-dimethylimidazolium dimethyl phosphate",AAqlaB,CC(C)O,propan-2-ol,AALcwx,Cn1cc[n+](C)c1,COP(=O)([O-])OC,2,,,,1354,False,Cn1cc[n+](C)c1.COP(=O)([O-])OC,No changes
RYgAi,313.15,101.0,1205.4,Zhang et al. (2014d),Liquid,0.7968,"1,3-dimethylimidazolium dimethyl phosphate",,,Cn1cc[n+](C)c1.COP(=O)([O-])OC,"1,3-dimethylimidazolium dimethyl phosphate",AAqlaB,CC(C)O,propan-2-ol,AALcwx,Cn1cc[n+](C)c1,COP(=O)([O-])OC,2,,,,1355,False,Cn1cc[n+](C)c1.COP(=O)([O-])OC,No changes
RYgAi,313.15,101.0,1230.0,Zhang et al. (2014d),Liquid,0.9001,"1,3-dimethylimidazolium dimethyl phosphate",,,Cn1cc[n+](C)c1.COP(=O)([O-])OC,"1,3-dimethylimidazolium dimethyl phosphate",AAqlaB,CC(C)O,propan-2-ol,AALcwx,Cn1cc[n+](C)c1,COP(=O)([O-])OC,2,,,,1356,False,Cn1cc[n+](C)c1.COP(=O)([O-])OC,No changes
RYgAi,313.15,101.0,1251.0,Zhang et al. (2014d),Liquid,1.0,"1,3-dimethylimidazolium dimethyl phosphate",,,Cn1cc[n+](C)c1.COP(=O)([O-])OC,"1,3-dimethylimidazolium dimethyl phosphate",AAqlaB,CC(C)O,propan-2-ol,AALcwx,Cn1cc[n+](C)c1,COP(=O)([O-])OC,2,,,,1357,False,Cn1cc[n+](C)c1.COP(=O)([O-])OC,No changes
RYgAi,318.15,101.0,763.5,Zhang et al. (2014d),Liquid,0.0,"1,3-dimethylimidazolium dimethyl phosphate",,,Cn1cc[n+](C)c1.COP(=O)([O-])OC,"1,3-dimethylimidazolium dimethyl phosphate",AAqlaB,CC(C)O,propan-2-ol,AALcwx,Cn1cc[n+](C)c1,COP(=O)([O-])OC,2,,,,1358,False,Cn1cc[n+](C)c1.COP(=O)([O-])OC,No changes
RYgAi,318.15,101.0,868.6,Zhang et al. (2014d),Liquid,0.0987,"1,3-dimethylimidazolium dimethyl phosphate",,,Cn1cc[n+](C)c1.COP(=O)([O-])OC,"1,3-dimethylimidazolium dimethyl phosphate",AAqlaB,CC(C)O,propan-2-ol,AALcwx,Cn1cc[n+](C)c1,COP(=O)([O-])OC,2,,,,1359,False,Cn1cc[n+](C)c1.COP(=O)([O-])OC,No changes
RYgAi,318.15,101.0,948.1,Zhang et al. (2014d),Liquid,0.2003,"1,3-dimethylimidazolium dimethyl phosphate",,,Cn1cc[n+](C)c1.COP(=O)([O-])OC,"1,3-dimethylimidazolium dimethyl phosphate",AAqlaB,CC(C)O,propan-2-ol,AALcwx,Cn1cc[n+](C)c1,COP(=O)([O-])OC,2,,,,1360,False,Cn1cc[n+](C)c1.COP(=O)([O-])OC,No changes
RYgAi,318.15,101.0,1010.7,Zhang et al. (2014d),Liquid,0.2991,"1,3-dimethylimidazolium dimethyl phosphate",,,Cn1cc[n+](C)c1.COP(=O)([O-])OC,"1,3-dimethylimidazolium dimethyl phosphate",AAqlaB,CC(C)O,propan-2-ol,AALcwx,Cn1cc[n+](C)c1,COP(=O)([O-])OC,2,,,,1361,False,Cn1cc[n+](C)c1.COP(=O)([O-])OC,No changes
RYgAi,318.15,101.0,1063.4,Zhang et al. (2014d),Liquid,0.4,"1,3-dimethylimidazolium dimethyl phosphate",,,Cn1cc[n+](C)c1.COP(=O)([O-])OC,"1,3-dimethylimidazolium dimethyl phosphate",AAqlaB,CC(C)O,propan-2-ol,AALcwx,Cn1cc[n+](C)c1,COP(=O)([O-])OC,2,,,,1362,False,Cn1cc[n+](C)c1.COP(=O)([O-])OC,No changes
RYgAi,318.15,101.0,1106.9,Zhang et al. (2014d),Liquid,0.4998,"1,3-dimethylimidazolium dimethyl phosphate",,,Cn1cc[n+](C)c1.COP(=O)([O-])OC,"1,3-dimethylimidazolium dimethyl phosphate",AAqlaB,CC(C)O,propan-2-ol,AALcwx,Cn1cc[n+](C)c1,COP(=O)([O-])OC,2,,,,1363,False,Cn1cc[n+](C)c1.COP(=O)([O-])OC,No changes
RYgAi,318.15,101.0,1143.0,Zhang et al. (2014d),Liquid,0.598,"1,3-dimethylimidazolium dimethyl phosphate",,,Cn1cc[n+](C)c1.COP(=O)([O-])OC,"1,3-dimethylimidazolium dimethyl phosphate",AAqlaB,CC(C)O,propan-2-ol,AALcwx,Cn1cc[n+](C)c1,COP(=O)([O-])OC,2,,,,1364,False,Cn1cc[n+](C)c1.COP(=O)([O-])OC,No changes
RYgAi,318.15,101.0,1175.2,Zhang et al. (2014d),Liquid,0.699,"1,3-dimethylimidazolium dimethyl phosphate",,,Cn1cc[n+](C)c1.COP(=O)([O-])OC,"1,3-dimethylimidazolium dimethyl phosphate",AAqlaB,CC(C)O,propan-2-ol,AALcwx,Cn1cc[n+](C)c1,COP(=O)([O-])OC,2,,,,1365,False,Cn1cc[n+](C)c1.COP(=O)([O-])OC,No changes
RYgAi,318.15,101.0,1202.0,Zhang et al. (2014d),Liquid,0.7968,"1,3-dimethylimidazolium dimethyl phosphate",,,Cn1cc[n+](C)c1.COP(=O)([O-])OC,"1,3-dimethylimidazolium dimethyl phosphate",AAqlaB,CC(C)O,propan-2-ol,AALcwx,Cn1cc[n+](C)c1,COP(=O)([O-])OC,2,,,,1366,False,Cn1cc[n+](C)c1.COP(=O)([O-])OC,No changes
RYgAi,318.15,101.0,1226.6,Zhang et al. (2014d),Liquid,0.9001,"1,3-dimethylimidazolium dimethyl phosphate",,,Cn1cc[n+](C)c1.COP(=O)([O-])OC,"1,3-dimethylimidazolium dimethyl phosphate",AAqlaB,CC(C)O,propan-2-ol,AALcwx,Cn1cc[n+](C)c1,COP(=O)([O-])OC,2,,,,1367,False,Cn1cc[n+](C)c1.COP(=O)([O-])OC,No changes
RYgAi,318.15,101.0,1247.6,Zhang et al. (2014d),Liquid,1.0,"1,3-dimethylimidazolium dimethyl phosphate",,,Cn1cc[n+](C)c1.COP(=O)([O-])OC,"1,3-dimethylimidazolium dimethyl phosphate",AAqlaB,CC(C)O,propan-2-ol,AALcwx,Cn1cc[n+](C)c1,COP(=O)([O-])OC,2,,,,1368,False,Cn1cc[n+](C)c1.COP(=O)([O-])OC,No changes
RYgAi,323.15,101.0,758.9,Zhang et al. (2014d),Liquid,0.0,"1,3-dimethylimidazolium dimethyl phosphate",,,Cn1cc[n+](C)c1.COP(=O)([O-])OC,"1,3-dimethylimidazolium dimethyl phosphate",AAqlaB,CC(C)O,propan-2-ol,AALcwx,Cn1cc[n+](C)c1,COP(=O)([O-])OC,2,,,,1369,False,Cn1cc[n+](C)c1.COP(=O)([O-])OC,No changes
RYgAi,323.15,101.0,864.6,Zhang et al. (2014d),Liquid,0.0987,"1,3-dimethylimidazolium dimethyl phosphate",,,Cn1cc[n+](C)c1.COP(=O)([O-])OC,"1,3-dimethylimidazolium dimethyl phosphate",AAqlaB,CC(C)O,propan-2-ol,AALcwx,Cn1cc[n+](C)c1,COP(=O)([O-])OC,2,,,,1370,False,Cn1cc[n+](C)c1.COP(=O)([O-])OC,No changes
RYgAi,323.15,101.0,944.3,Zhang et al. (2014d),Liquid,0.2003,"1,3-dimethylimidazolium dimethyl phosphate",,,Cn1cc[n+](C)c1.COP(=O)([O-])OC,"1,3-dimethylimidazolium dimethyl phosphate",AAqlaB,CC(C)O,propan-2-ol,AALcwx,Cn1cc[n+](C)c1,COP(=O)([O-])OC,2,,,,1371,False,Cn1cc[n+](C)c1.COP(=O)([O-])OC,No changes
RYgAi,323.15,101.0,1006.9,Zhang et al. (2014d),Liquid,0.2991,"1,3-dimethylimidazolium dimethyl phosphate",,,Cn1cc[n+](C)c1.COP(=O)([O-])OC,"1,3-dimethylimidazolium dimethyl phosphate",AAqlaB,CC(C)O,propan-2-ol,AALcwx,Cn1cc[n+](C)c1,COP(=O)([O-])OC,2,,,,1372,False,Cn1cc[n+](C)c1.COP(=O)([O-])OC,No changes
RYgAi,323.15,101.0,1059.8,Zhang et al. (2014d),Liquid,0.4,"1,3-dimethylimidazolium dimethyl phosphate",,,Cn1cc[n+](C)c1.COP(=O)([O-])OC,"1,3-dimethylimidazolium dimethyl phosphate",AAqlaB,CC(C)O,propan-2-ol,AALcwx,Cn1cc[n+](C)c1,COP(=O)([O-])OC,2,,,,1373,False,Cn1cc[n+](C)c1.COP(=O)([O-])OC,No changes
RYgAi,323.15,101.0,1103.4,Zhang et al. (2014d),Liquid,0.4998,"1,3-dimethylimidazolium dimethyl phosphate",,,Cn1cc[n+](C)c1.COP(=O)([O-])OC,"1,3-dimethylimidazolium dimethyl phosphate",AAqlaB,CC(C)O,propan-2-ol,AALcwx,Cn1cc[n+](C)c1,COP(=O)([O-])OC,2,,,,1374,False,Cn1cc[n+](C)c1.COP(=O)([O-])OC,No changes
RYgAi,323.15,101.0,1139.6,Zhang et al. (2014d),Liquid,0.598,"1,3-dimethylimidazolium dimethyl phosphate",,,Cn1cc[n+](C)c1.COP(=O)([O-])OC,"1,3-dimethylimidazolium dimethyl phosphate",AAqlaB,CC(C)O,propan-2-ol,AALcwx,Cn1cc[n+](C)c1,COP(=O)([O-])OC,2,,,,1375,False,Cn1cc[n+](C)c1.COP(=O)([O-])OC,No changes
RYgAi,323.15,101.0,1171.8,Zhang et al. (2014d),Liquid,0.699,"1,3-dimethylimidazolium dimethyl phosphate",,,Cn1cc[n+](C)c1.COP(=O)([O-])OC,"1,3-dimethylimidazolium dimethyl phosphate",AAqlaB,CC(C)O,propan-2-ol,AALcwx,Cn1cc[n+](C)c1,COP(=O)([O-])OC,2,,,,1376,False,Cn1cc[n+](C)c1.COP(=O)([O-])OC,No changes
RYgAi,323.15,101.0,1198.6,Zhang et al. (2014d),Liquid,0.7968,"1,3-dimethylimidazolium dimethyl phosphate",,,Cn1cc[n+](C)c1.COP(=O)([O-])OC,"1,3-dimethylimidazolium dimethyl phosphate",AAqlaB,CC(C)O,propan-2-ol,AALcwx,Cn1cc[n+](C)c1,COP(=O)([O-])OC,2,,,,1377,False,Cn1cc[n+](C)c1.COP(=O)([O-])OC,No changes
RYgAi,323.15,101.0,1223.2,Zhang et al. (2014d),Liquid,0.9001,"1,3-dimethylimidazolium dimethyl phosphate",,,Cn1cc[n+](C)c1.COP(=O)([O-])OC,"1,3-dimethylimidazolium dimethyl phosphate",AAqlaB,CC(C)O,propan-2-ol,AALcwx,Cn1cc[n+](C)c1,COP(=O)([O-])OC,2,,,,1378,False,Cn1cc[n+](C)c1.COP(=O)([O-])OC,No changes
RYgAi,323.15,101.0,1244.2,Zhang et al. (2014d),Liquid,1.0,"1,3-dimethylimidazolium dimethyl phosphate",,,Cn1cc[n+](C)c1.COP(=O)([O-])OC,"1,3-dimethylimidazolium dimethyl phosphate",AAqlaB,CC(C)O,propan-2-ol,AALcwx,Cn1cc[n+](C)c1,COP(=O)([O-])OC,2,,,,1379,False,Cn1cc[n+](C)c1.COP(=O)([O-])OC,No changes
eqtcl,288.15,101.0,1287.57,Requejo et al. (2014),Liquid,1.0,propan-2-ol,,,CC[n+]1ccn(C)c1.COS(=O)(=O)[O-],1-ethyl-3-methylimidazolium methyl sulfate,AAqmVN,CC(C)O,propan-2-ol,AALcwx,CC[n+]1ccn(C)c1,COS(=O)(=O)[O-],2,0.0,,,1380,False,CC[n+]1ccn(C)c1.COS(=O)(=O)[O-],No changes
eqtcl,298.15,101.0,1280.81,Requejo et al. (2014),Liquid,1.0,propan-2-ol,,,CC[n+]1ccn(C)c1.COS(=O)(=O)[O-],1-ethyl-3-methylimidazolium methyl sulfate,AAqmVN,CC(C)O,propan-2-ol,AALcwx,CC[n+]1ccn(C)c1,COS(=O)(=O)[O-],2,0.0,,,1381,False,CC[n+]1ccn(C)c1.COS(=O)(=O)[O-],No changes
eqtcl,308.15,101.0,1273.97,Requejo et al. (2014),Liquid,1.0,propan-2-ol,,,CC[n+]1ccn(C)c1.COS(=O)(=O)[O-],1-ethyl-3-methylimidazolium methyl sulfate,AAqmVN,CC(C)O,propan-2-ol,AALcwx,CC[n+]1ccn(C)c1,COS(=O)(=O)[O-],2,0.0,,,1382,False,CC[n+]1ccn(C)c1.COS(=O)(=O)[O-],No changes
eqtcl,288.15,101.0,1277.61,Requejo et al. (2014),Liquid,0.951,propan-2-ol,,,CC[n+]1ccn(C)c1.COS(=O)(=O)[O-],1-ethyl-3-methylimidazolium methyl sulfate,AAqmVN,CC(C)O,propan-2-ol,AALcwx,CC[n+]1ccn(C)c1,COS(=O)(=O)[O-],2,0.049,,,1383,False,CC[n+]1ccn(C)c1.COS(=O)(=O)[O-],No changes
eqtcl,298.15,101.0,1270.72,Requejo et al. (2014),Liquid,0.951,propan-2-ol,,,CC[n+]1ccn(C)c1.COS(=O)(=O)[O-],1-ethyl-3-methylimidazolium methyl sulfate,AAqmVN,CC(C)O,propan-2-ol,AALcwx,CC[n+]1ccn(C)c1,COS(=O)(=O)[O-],2,0.049,,,1384,False,CC[n+]1ccn(C)c1.COS(=O)(=O)[O-],No changes
eqtcl,308.15,101.0,1263.87,Requejo et al. (2014),Liquid,0.951,propan-2-ol,,,CC[n+]1ccn(C)c1.COS(=O)(=O)[O-],1-ethyl-3-methylimidazolium methyl sulfate,AAqmVN,CC(C)O,propan-2-ol,AALcwx,CC[n+]1ccn(C)c1,COS(=O)(=O)[O-],2,0.049,,,1385,False,CC[n+]1ccn(C)c1.COS(=O)(=O)[O-],No changes
eqtcl,288.15,101.0,1266.36,Requejo et al. (2014),Liquid,0.899,propan-2-ol,,,CC[n+]1ccn(C)c1.COS(=O)(=O)[O-],1-ethyl-3-methylimidazolium methyl sulfate,AAqmVN,CC(C)O,propan-2-ol,AALcwx,CC[n+]1ccn(C)c1,COS(=O)(=O)[O-],2,0.101,,,1386,False,CC[n+]1ccn(C)c1.COS(=O)(=O)[O-],No changes
eqtcl,298.15,101.0,1259.44,Requejo et al. (2014),Liquid,0.899,propan-2-ol,,,CC[n+]1ccn(C)c1.COS(=O)(=O)[O-],1-ethyl-3-methylimidazolium methyl sulfate,AAqmVN,CC(C)O,propan-2-ol,AALcwx,CC[n+]1ccn(C)c1,COS(=O)(=O)[O-],2,0.101,,,1387,False,CC[n+]1ccn(C)c1.COS(=O)(=O)[O-],No changes
eqtcl,308.15,101.0,1252.56,Requejo et al. (2014),Liquid,0.899,propan-2-ol,,,CC[n+]1ccn(C)c1.COS(=O)(=O)[O-],1-ethyl-3-methylimidazolium methyl sulfate,AAqmVN,CC(C)O,propan-2-ol,AALcwx,CC[n+]1ccn(C)c1,COS(=O)(=O)[O-],2,0.101,,,1388,False,CC[n+]1ccn(C)c1.COS(=O)(=O)[O-],No changes
eqtcl,288.15,101.0,1240.88,Requejo et al. (2014),Liquid,0.795,propan-2-ol,,,CC[n+]1ccn(C)c1.COS(=O)(=O)[O-],1-ethyl-3-methylimidazolium methyl sulfate,AAqmVN,CC(C)O,propan-2-ol,AALcwx,CC[n+]1ccn(C)c1,COS(=O)(=O)[O-],2,0.205,,,1389,False,CC[n+]1ccn(C)c1.COS(=O)(=O)[O-],No changes
eqtcl,298.15,101.0,1233.92,Requejo et al. (2014),Liquid,0.795,propan-2-ol,,,CC[n+]1ccn(C)c1.COS(=O)(=O)[O-],1-ethyl-3-methylimidazolium methyl sulfate,AAqmVN,CC(C)O,propan-2-ol,AALcwx,CC[n+]1ccn(C)c1,COS(=O)(=O)[O-],2,0.205,,,1390,False,CC[n+]1ccn(C)c1.COS(=O)(=O)[O-],No changes
eqtcl,308.15,101.0,1227.01,Requejo et al. (2014),Liquid,0.795,propan-2-ol,,,CC[n+]1ccn(C)c1.COS(=O)(=O)[O-],1-ethyl-3-methylimidazolium methyl sulfate,AAqmVN,CC(C)O,propan-2-ol,AALcwx,CC[n+]1ccn(C)c1,COS(=O)(=O)[O-],2,0.205,,,1391,False,CC[n+]1ccn(C)c1.COS(=O)(=O)[O-],No changes
eqtcl,288.15,101.0,1212.09,Requejo et al. (2014),Liquid,0.6930000000000001,propan-2-ol,,,CC[n+]1ccn(C)c1.COS(=O)(=O)[O-],1-ethyl-3-methylimidazolium methyl sulfate,AAqmVN,CC(C)O,propan-2-ol,AALcwx,CC[n+]1ccn(C)c1,COS(=O)(=O)[O-],2,0.307,,,1392,False,CC[n+]1ccn(C)c1.COS(=O)(=O)[O-],No changes