setid,Temperature (K),Pressure (kPa),Density (kg/m3),reference,phases,Mole fraction,Mole fraction of compound name,Weight fraction,Weight fraction of compound name,IL_SMILES,IL_name,IL_ID,Solvent_SMILES,Solvent_name,Solvent_ID,IL_cation_SMILES,IL_anion_SMILES,IL_component_number,Mole fraction of solvent,IL_MW,Solvent_MW,Record_ID,Contains_Metal,Standardized_IL_SMILES,Changes
jTciS,293.15,100.0,1379.5,Massel et al. (2015),Liquid,0.8716,ethanol,,,CCCC[N+](C)(C)C.O=S(=O)([N-]S(=O)(=O)C(F)(F)F)C(F)(F)F,butyltrimethylammonium bis(trifluoromethylsulfonyl)imide,ABYLZx,CCO,ethanol,AAIsrh,CCCC[N+](C)(C)C,O=S(=O)([N-]S(=O)(=O)C(F)(F)F)C(F)(F)F,2,0.1284,,,994,False,CCCC[N+](C)(C)C.O=S(=O)([N-]S(=O)(=O)C(F)(F)F)C(F)(F)F,No changes
jTciS,293.15,100.0,1357.1,Massel et al. (2015),Liquid,0.7415,ethanol,,,CCCC[N+](C)(C)C.O=S(=O)([N-]S(=O)(=O)C(F)(F)F)C(F)(F)F,butyltrimethylammonium bis(trifluoromethylsulfonyl)imide,ABYLZx,CCO,ethanol,AAIsrh,CCCC[N+](C)(C)C,O=S(=O)([N-]S(=O)(=O)C(F)(F)F)C(F)(F)F,2,0.2585,,,995,False,CCCC[N+](C)(C)C.O=S(=O)([N-]S(=O)(=O)C(F)(F)F)C(F)(F)F,No changes
jTciS,293.15,100.0,1329.7,Massel et al. (2015),Liquid,0.6186,ethanol,,,CCCC[N+](C)(C)C.O=S(=O)([N-]S(=O)(=O)C(F)(F)F)C(F)(F)F,butyltrimethylammonium bis(trifluoromethylsulfonyl)imide,ABYLZx,CCO,ethanol,AAIsrh,CCCC[N+](C)(C)C,O=S(=O)([N-]S(=O)(=O)C(F)(F)F)C(F)(F)F,2,0.3814,,,996,False,CCCC[N+](C)(C)C.O=S(=O)([N-]S(=O)(=O)C(F)(F)F)C(F)(F)F,No changes
jTciS,293.15,100.0,1293.9,Massel et al. (2015),Liquid,0.4969,ethanol,,,CCCC[N+](C)(C)C.O=S(=O)([N-]S(=O)(=O)C(F)(F)F)C(F)(F)F,butyltrimethylammonium bis(trifluoromethylsulfonyl)imide,ABYLZx,CCO,ethanol,AAIsrh,CCCC[N+](C)(C)C,O=S(=O)([N-]S(=O)(=O)C(F)(F)F)C(F)(F)F,2,0.5031,,,997,False,CCCC[N+](C)(C)C.O=S(=O)([N-]S(=O)(=O)C(F)(F)F)C(F)(F)F,No changes
jTciS,293.15,100.0,1232.1,Massel et al. (2015),Liquid,0.3512999999999999,ethanol,,,CCCC[N+](C)(C)C.O=S(=O)([N-]S(=O)(=O)C(F)(F)F)C(F)(F)F,butyltrimethylammonium bis(trifluoromethylsulfonyl)imide,ABYLZx,CCO,ethanol,AAIsrh,CCCC[N+](C)(C)C,O=S(=O)([N-]S(=O)(=O)C(F)(F)F)C(F)(F)F,2,0.6487,,,998,False,CCCC[N+](C)(C)C.O=S(=O)([N-]S(=O)(=O)C(F)(F)F)C(F)(F)F,No changes
jTciS,293.15,100.0,1142.0,Massel et al. (2015),Liquid,0.2177,ethanol,,,CCCC[N+](C)(C)C.O=S(=O)([N-]S(=O)(=O)C(F)(F)F)C(F)(F)F,butyltrimethylammonium bis(trifluoromethylsulfonyl)imide,ABYLZx,CCO,ethanol,AAIsrh,CCCC[N+](C)(C)C,O=S(=O)([N-]S(=O)(=O)C(F)(F)F)C(F)(F)F,2,0.7823,,,999,False,CCCC[N+](C)(C)C.O=S(=O)([N-]S(=O)(=O)C(F)(F)F)C(F)(F)F,No changes
jTciS,293.15,100.0,1066.3,Massel et al. (2015),Liquid,0.1439,ethanol,,,CCCC[N+](C)(C)C.O=S(=O)([N-]S(=O)(=O)C(F)(F)F)C(F)(F)F,butyltrimethylammonium bis(trifluoromethylsulfonyl)imide,ABYLZx,CCO,ethanol,AAIsrh,CCCC[N+](C)(C)C,O=S(=O)([N-]S(=O)(=O)C(F)(F)F)C(F)(F)F,2,0.8561,,,1000,False,CCCC[N+](C)(C)C.O=S(=O)([N-]S(=O)(=O)C(F)(F)F)C(F)(F)F,No changes
jTciS,293.15,100.0,1040.6,Massel et al. (2015),Liquid,0.1237,ethanol,,,CCCC[N+](C)(C)C.O=S(=O)([N-]S(=O)(=O)C(F)(F)F)C(F)(F)F,butyltrimethylammonium bis(trifluoromethylsulfonyl)imide,ABYLZx,CCO,ethanol,AAIsrh,CCCC[N+](C)(C)C,O=S(=O)([N-]S(=O)(=O)C(F)(F)F)C(F)(F)F,2,0.8763,,,1001,False,CCCC[N+](C)(C)C.O=S(=O)([N-]S(=O)(=O)C(F)(F)F)C(F)(F)F,No changes
jTciS,293.15,100.0,1000.1,Massel et al. (2015),Liquid,0.0960999999999999,ethanol,,,CCCC[N+](C)(C)C.O=S(=O)([N-]S(=O)(=O)C(F)(F)F)C(F)(F)F,butyltrimethylammonium bis(trifluoromethylsulfonyl)imide,ABYLZx,CCO,ethanol,AAIsrh,CCCC[N+](C)(C)C,O=S(=O)([N-]S(=O)(=O)C(F)(F)F)C(F)(F)F,2,0.9039,,,1002,False,CCCC[N+](C)(C)C.O=S(=O)([N-]S(=O)(=O)C(F)(F)F)C(F)(F)F,No changes
jTciS,293.15,100.0,916.4,Massel et al. (2015),Liquid,0.05,ethanol,,,CCCC[N+](C)(C)C.O=S(=O)([N-]S(=O)(=O)C(F)(F)F)C(F)(F)F,butyltrimethylammonium bis(trifluoromethylsulfonyl)imide,ABYLZx,CCO,ethanol,AAIsrh,CCCC[N+](C)(C)C,O=S(=O)([N-]S(=O)(=O)C(F)(F)F)C(F)(F)F,2,0.95,,,1003,False,CCCC[N+](C)(C)C.O=S(=O)([N-]S(=O)(=O)C(F)(F)F)C(F)(F)F,No changes
jTciS,293.15,100.0,860.2,Massel et al. (2015),Liquid,0.0254999999999999,ethanol,,,CCCC[N+](C)(C)C.O=S(=O)([N-]S(=O)(=O)C(F)(F)F)C(F)(F)F,butyltrimethylammonium bis(trifluoromethylsulfonyl)imide,ABYLZx,CCO,ethanol,AAIsrh,CCCC[N+](C)(C)C,O=S(=O)([N-]S(=O)(=O)C(F)(F)F)C(F)(F)F,2,0.9745,,,1004,False,CCCC[N+](C)(C)C.O=S(=O)([N-]S(=O)(=O)C(F)(F)F)C(F)(F)F,No changes
jTciS,293.15,100.0,789.6,Massel et al. (2015),Liquid,0.0,ethanol,,,CCCC[N+](C)(C)C.O=S(=O)([N-]S(=O)(=O)C(F)(F)F)C(F)(F)F,butyltrimethylammonium bis(trifluoromethylsulfonyl)imide,ABYLZx,CCO,ethanol,AAIsrh,CCCC[N+](C)(C)C,O=S(=O)([N-]S(=O)(=O)C(F)(F)F)C(F)(F)F,2,1.0,,,1005,False,CCCC[N+](C)(C)C.O=S(=O)([N-]S(=O)(=O)C(F)(F)F)C(F)(F)F,No changes
jTciS,295.15,100.0,1395.3,Massel et al. (2015),Liquid,1.0,ethanol,,,CCCC[N+](C)(C)C.O=S(=O)([N-]S(=O)(=O)C(F)(F)F)C(F)(F)F,butyltrimethylammonium bis(trifluoromethylsulfonyl)imide,ABYLZx,CCO,ethanol,AAIsrh,CCCC[N+](C)(C)C,O=S(=O)([N-]S(=O)(=O)C(F)(F)F)C(F)(F)F,2,0.0,,,1006,False,CCCC[N+](C)(C)C.O=S(=O)([N-]S(=O)(=O)C(F)(F)F)C(F)(F)F,No changes
jTciS,295.15,100.0,1377.7,Massel et al. (2015),Liquid,0.8716,ethanol,,,CCCC[N+](C)(C)C.O=S(=O)([N-]S(=O)(=O)C(F)(F)F)C(F)(F)F,butyltrimethylammonium bis(trifluoromethylsulfonyl)imide,ABYLZx,CCO,ethanol,AAIsrh,CCCC[N+](C)(C)C,O=S(=O)([N-]S(=O)(=O)C(F)(F)F)C(F)(F)F,2,0.1284,,,1007,False,CCCC[N+](C)(C)C.O=S(=O)([N-]S(=O)(=O)C(F)(F)F)C(F)(F)F,No changes
jTciS,295.15,100.0,1355.3,Massel et al. (2015),Liquid,0.7415,ethanol,,,CCCC[N+](C)(C)C.O=S(=O)([N-]S(=O)(=O)C(F)(F)F)C(F)(F)F,butyltrimethylammonium bis(trifluoromethylsulfonyl)imide,ABYLZx,CCO,ethanol,AAIsrh,CCCC[N+](C)(C)C,O=S(=O)([N-]S(=O)(=O)C(F)(F)F)C(F)(F)F,2,0.2585,,,1008,False,CCCC[N+](C)(C)C.O=S(=O)([N-]S(=O)(=O)C(F)(F)F)C(F)(F)F,No changes
jTciS,295.15,100.0,1327.8,Massel et al. (2015),Liquid,0.6186,ethanol,,,CCCC[N+](C)(C)C.O=S(=O)([N-]S(=O)(=O)C(F)(F)F)C(F)(F)F,butyltrimethylammonium bis(trifluoromethylsulfonyl)imide,ABYLZx,CCO,ethanol,AAIsrh,CCCC[N+](C)(C)C,O=S(=O)([N-]S(=O)(=O)C(F)(F)F)C(F)(F)F,2,0.3814,,,1009,False,CCCC[N+](C)(C)C.O=S(=O)([N-]S(=O)(=O)C(F)(F)F)C(F)(F)F,No changes
jTciS,295.15,100.0,1292.0,Massel et al. (2015),Liquid,0.4969,ethanol,,,CCCC[N+](C)(C)C.O=S(=O)([N-]S(=O)(=O)C(F)(F)F)C(F)(F)F,butyltrimethylammonium bis(trifluoromethylsulfonyl)imide,ABYLZx,CCO,ethanol,AAIsrh,CCCC[N+](C)(C)C,O=S(=O)([N-]S(=O)(=O)C(F)(F)F)C(F)(F)F,2,0.5031,,,1010,False,CCCC[N+](C)(C)C.O=S(=O)([N-]S(=O)(=O)C(F)(F)F)C(F)(F)F,No changes
jTciS,295.15,100.0,1230.3,Massel et al. (2015),Liquid,0.3512999999999999,ethanol,,,CCCC[N+](C)(C)C.O=S(=O)([N-]S(=O)(=O)C(F)(F)F)C(F)(F)F,butyltrimethylammonium bis(trifluoromethylsulfonyl)imide,ABYLZx,CCO,ethanol,AAIsrh,CCCC[N+](C)(C)C,O=S(=O)([N-]S(=O)(=O)C(F)(F)F)C(F)(F)F,2,0.6487,,,1011,False,CCCC[N+](C)(C)C.O=S(=O)([N-]S(=O)(=O)C(F)(F)F)C(F)(F)F,No changes
jTciS,295.15,100.0,1140.1,Massel et al. (2015),Liquid,0.2177,ethanol,,,CCCC[N+](C)(C)C.O=S(=O)([N-]S(=O)(=O)C(F)(F)F)C(F)(F)F,butyltrimethylammonium bis(trifluoromethylsulfonyl)imide,ABYLZx,CCO,ethanol,AAIsrh,CCCC[N+](C)(C)C,O=S(=O)([N-]S(=O)(=O)C(F)(F)F)C(F)(F)F,2,0.7823,,,1012,False,CCCC[N+](C)(C)C.O=S(=O)([N-]S(=O)(=O)C(F)(F)F)C(F)(F)F,No changes
jTciS,295.15,100.0,1064.5,Massel et al. (2015),Liquid,0.1439,ethanol,,,CCCC[N+](C)(C)C.O=S(=O)([N-]S(=O)(=O)C(F)(F)F)C(F)(F)F,butyltrimethylammonium bis(trifluoromethylsulfonyl)imide,ABYLZx,CCO,ethanol,AAIsrh,CCCC[N+](C)(C)C,O=S(=O)([N-]S(=O)(=O)C(F)(F)F)C(F)(F)F,2,0.8561,,,1013,False,CCCC[N+](C)(C)C.O=S(=O)([N-]S(=O)(=O)C(F)(F)F)C(F)(F)F,No changes
jTciS,295.15,100.0,1038.8,Massel et al. (2015),Liquid,0.1237,ethanol,,,CCCC[N+](C)(C)C.O=S(=O)([N-]S(=O)(=O)C(F)(F)F)C(F)(F)F,butyltrimethylammonium bis(trifluoromethylsulfonyl)imide,ABYLZx,CCO,ethanol,AAIsrh,CCCC[N+](C)(C)C,O=S(=O)([N-]S(=O)(=O)C(F)(F)F)C(F)(F)F,2,0.8763,,,1014,False,CCCC[N+](C)(C)C.O=S(=O)([N-]S(=O)(=O)C(F)(F)F)C(F)(F)F,No changes
jTciS,295.15,100.0,998.3,Massel et al. (2015),Liquid,0.0960999999999999,ethanol,,,CCCC[N+](C)(C)C.O=S(=O)([N-]S(=O)(=O)C(F)(F)F)C(F)(F)F,butyltrimethylammonium bis(trifluoromethylsulfonyl)imide,ABYLZx,CCO,ethanol,AAIsrh,CCCC[N+](C)(C)C,O=S(=O)([N-]S(=O)(=O)C(F)(F)F)C(F)(F)F,2,0.9039,,,1015,False,CCCC[N+](C)(C)C.O=S(=O)([N-]S(=O)(=O)C(F)(F)F)C(F)(F)F,No changes
jTciS,295.15,100.0,914.6,Massel et al. (2015),Liquid,0.05,ethanol,,,CCCC[N+](C)(C)C.O=S(=O)([N-]S(=O)(=O)C(F)(F)F)C(F)(F)F,butyltrimethylammonium bis(trifluoromethylsulfonyl)imide,ABYLZx,CCO,ethanol,AAIsrh,CCCC[N+](C)(C)C,O=S(=O)([N-]S(=O)(=O)C(F)(F)F)C(F)(F)F,2,0.95,,,1016,False,CCCC[N+](C)(C)C.O=S(=O)([N-]S(=O)(=O)C(F)(F)F)C(F)(F)F,No changes
jTciS,295.15,100.0,858.4,Massel et al. (2015),Liquid,0.0254999999999999,ethanol,,,CCCC[N+](C)(C)C.O=S(=O)([N-]S(=O)(=O)C(F)(F)F)C(F)(F)F,butyltrimethylammonium bis(trifluoromethylsulfonyl)imide,ABYLZx,CCO,ethanol,AAIsrh,CCCC[N+](C)(C)C,O=S(=O)([N-]S(=O)(=O)C(F)(F)F)C(F)(F)F,2,0.9745,,,1017,False,CCCC[N+](C)(C)C.O=S(=O)([N-]S(=O)(=O)C(F)(F)F)C(F)(F)F,No changes
jTciS,295.15,100.0,787.9,Massel et al. (2015),Liquid,0.0,ethanol,,,CCCC[N+](C)(C)C.O=S(=O)([N-]S(=O)(=O)C(F)(F)F)C(F)(F)F,butyltrimethylammonium bis(trifluoromethylsulfonyl)imide,ABYLZx,CCO,ethanol,AAIsrh,CCCC[N+](C)(C)C,O=S(=O)([N-]S(=O)(=O)C(F)(F)F)C(F)(F)F,2,1.0,,,1018,False,CCCC[N+](C)(C)C.O=S(=O)([N-]S(=O)(=O)C(F)(F)F)C(F)(F)F,No changes
jTciS,298.15,100.0,1392.7,Massel et al. (2015),Liquid,1.0,ethanol,,,CCCC[N+](C)(C)C.O=S(=O)([N-]S(=O)(=O)C(F)(F)F)C(F)(F)F,butyltrimethylammonium bis(trifluoromethylsulfonyl)imide,ABYLZx,CCO,ethanol,AAIsrh,CCCC[N+](C)(C)C,O=S(=O)([N-]S(=O)(=O)C(F)(F)F)C(F)(F)F,2,0.0,,,1019,False,CCCC[N+](C)(C)C.O=S(=O)([N-]S(=O)(=O)C(F)(F)F)C(F)(F)F,No changes
jTciS,298.15,100.0,1375.1,Massel et al. (2015),Liquid,0.8716,ethanol,,,CCCC[N+](C)(C)C.O=S(=O)([N-]S(=O)(=O)C(F)(F)F)C(F)(F)F,butyltrimethylammonium bis(trifluoromethylsulfonyl)imide,ABYLZx,CCO,ethanol,AAIsrh,CCCC[N+](C)(C)C,O=S(=O)([N-]S(=O)(=O)C(F)(F)F)C(F)(F)F,2,0.1284,,,1020,False,CCCC[N+](C)(C)C.O=S(=O)([N-]S(=O)(=O)C(F)(F)F)C(F)(F)F,No changes
jTciS,298.15,100.0,1352.6,Massel et al. (2015),Liquid,0.7415,ethanol,,,CCCC[N+](C)(C)C.O=S(=O)([N-]S(=O)(=O)C(F)(F)F)C(F)(F)F,butyltrimethylammonium bis(trifluoromethylsulfonyl)imide,ABYLZx,CCO,ethanol,AAIsrh,CCCC[N+](C)(C)C,O=S(=O)([N-]S(=O)(=O)C(F)(F)F)C(F)(F)F,2,0.2585,,,1021,False,CCCC[N+](C)(C)C.O=S(=O)([N-]S(=O)(=O)C(F)(F)F)C(F)(F)F,No changes
jTciS,298.15,100.0,1325.1,Massel et al. (2015),Liquid,0.6186,ethanol,,,CCCC[N+](C)(C)C.O=S(=O)([N-]S(=O)(=O)C(F)(F)F)C(F)(F)F,butyltrimethylammonium bis(trifluoromethylsulfonyl)imide,ABYLZx,CCO,ethanol,AAIsrh,CCCC[N+](C)(C)C,O=S(=O)([N-]S(=O)(=O)C(F)(F)F)C(F)(F)F,2,0.3814,,,1022,False,CCCC[N+](C)(C)C.O=S(=O)([N-]S(=O)(=O)C(F)(F)F)C(F)(F)F,No changes
jTciS,298.15,100.0,1289.3,Massel et al. (2015),Liquid,0.4969,ethanol,,,CCCC[N+](C)(C)C.O=S(=O)([N-]S(=O)(=O)C(F)(F)F)C(F)(F)F,butyltrimethylammonium bis(trifluoromethylsulfonyl)imide,ABYLZx,CCO,ethanol,AAIsrh,CCCC[N+](C)(C)C,O=S(=O)([N-]S(=O)(=O)C(F)(F)F)C(F)(F)F,2,0.5031,,,1023,False,CCCC[N+](C)(C)C.O=S(=O)([N-]S(=O)(=O)C(F)(F)F)C(F)(F)F,No changes
jTciS,298.15,100.0,1227.5,Massel et al. (2015),Liquid,0.3512999999999999,ethanol,,,CCCC[N+](C)(C)C.O=S(=O)([N-]S(=O)(=O)C(F)(F)F)C(F)(F)F,butyltrimethylammonium bis(trifluoromethylsulfonyl)imide,ABYLZx,CCO,ethanol,AAIsrh,CCCC[N+](C)(C)C,O=S(=O)([N-]S(=O)(=O)C(F)(F)F)C(F)(F)F,2,0.6487,,,1024,False,CCCC[N+](C)(C)C.O=S(=O)([N-]S(=O)(=O)C(F)(F)F)C(F)(F)F,No changes
jTciS,298.15,100.0,1137.3,Massel et al. (2015),Liquid,0.2177,ethanol,,,CCCC[N+](C)(C)C.O=S(=O)([N-]S(=O)(=O)C(F)(F)F)C(F)(F)F,butyltrimethylammonium bis(trifluoromethylsulfonyl)imide,ABYLZx,CCO,ethanol,AAIsrh,CCCC[N+](C)(C)C,O=S(=O)([N-]S(=O)(=O)C(F)(F)F)C(F)(F)F,2,0.7823,,,1025,False,CCCC[N+](C)(C)C.O=S(=O)([N-]S(=O)(=O)C(F)(F)F)C(F)(F)F,No changes
jTciS,298.15,100.0,1061.7,Massel et al. (2015),Liquid,0.1439,ethanol,,,CCCC[N+](C)(C)C.O=S(=O)([N-]S(=O)(=O)C(F)(F)F)C(F)(F)F,butyltrimethylammonium bis(trifluoromethylsulfonyl)imide,ABYLZx,CCO,ethanol,AAIsrh,CCCC[N+](C)(C)C,O=S(=O)([N-]S(=O)(=O)C(F)(F)F)C(F)(F)F,2,0.8561,,,1026,False,CCCC[N+](C)(C)C.O=S(=O)([N-]S(=O)(=O)C(F)(F)F)C(F)(F)F,No changes
jTciS,298.15,100.0,1036.0,Massel et al. (2015),Liquid,0.1237,ethanol,,,CCCC[N+](C)(C)C.O=S(=O)([N-]S(=O)(=O)C(F)(F)F)C(F)(F)F,butyltrimethylammonium bis(trifluoromethylsulfonyl)imide,ABYLZx,CCO,ethanol,AAIsrh,CCCC[N+](C)(C)C,O=S(=O)([N-]S(=O)(=O)C(F)(F)F)C(F)(F)F,2,0.8763,,,1027,False,CCCC[N+](C)(C)C.O=S(=O)([N-]S(=O)(=O)C(F)(F)F)C(F)(F)F,No changes
jTciS,298.15,100.0,995.6,Massel et al. (2015),Liquid,0.0960999999999999,ethanol,,,CCCC[N+](C)(C)C.O=S(=O)([N-]S(=O)(=O)C(F)(F)F)C(F)(F)F,butyltrimethylammonium bis(trifluoromethylsulfonyl)imide,ABYLZx,CCO,ethanol,AAIsrh,CCCC[N+](C)(C)C,O=S(=O)([N-]S(=O)(=O)C(F)(F)F)C(F)(F)F,2,0.9039,,,1028,False,CCCC[N+](C)(C)C.O=S(=O)([N-]S(=O)(=O)C(F)(F)F)C(F)(F)F,No changes
jTciS,298.15,100.0,911.9,Massel et al. (2015),Liquid,0.05,ethanol,,,CCCC[N+](C)(C)C.O=S(=O)([N-]S(=O)(=O)C(F)(F)F)C(F)(F)F,butyltrimethylammonium bis(trifluoromethylsulfonyl)imide,ABYLZx,CCO,ethanol,AAIsrh,CCCC[N+](C)(C)C,O=S(=O)([N-]S(=O)(=O)C(F)(F)F)C(F)(F)F,2,0.95,,,1029,False,CCCC[N+](C)(C)C.O=S(=O)([N-]S(=O)(=O)C(F)(F)F)C(F)(F)F,No changes
jTciS,298.15,100.0,855.8,Massel et al. (2015),Liquid,0.0254999999999999,ethanol,,,CCCC[N+](C)(C)C.O=S(=O)([N-]S(=O)(=O)C(F)(F)F)C(F)(F)F,butyltrimethylammonium bis(trifluoromethylsulfonyl)imide,ABYLZx,CCO,ethanol,AAIsrh,CCCC[N+](C)(C)C,O=S(=O)([N-]S(=O)(=O)C(F)(F)F)C(F)(F)F,2,0.9745,,,1030,False,CCCC[N+](C)(C)C.O=S(=O)([N-]S(=O)(=O)C(F)(F)F)C(F)(F)F,No changes
jTciS,298.15,100.0,785.3,Massel et al. (2015),Liquid,0.0,ethanol,,,CCCC[N+](C)(C)C.O=S(=O)([N-]S(=O)(=O)C(F)(F)F)C(F)(F)F,butyltrimethylammonium bis(trifluoromethylsulfonyl)imide,ABYLZx,CCO,ethanol,AAIsrh,CCCC[N+](C)(C)C,O=S(=O)([N-]S(=O)(=O)C(F)(F)F)C(F)(F)F,2,1.0,,,1031,False,CCCC[N+](C)(C)C.O=S(=O)([N-]S(=O)(=O)C(F)(F)F)C(F)(F)F,No changes
jTciS,303.15,100.0,1388.3,Massel et al. (2015),Liquid,1.0,ethanol,,,CCCC[N+](C)(C)C.O=S(=O)([N-]S(=O)(=O)C(F)(F)F)C(F)(F)F,butyltrimethylammonium bis(trifluoromethylsulfonyl)imide,ABYLZx,CCO,ethanol,AAIsrh,CCCC[N+](C)(C)C,O=S(=O)([N-]S(=O)(=O)C(F)(F)F)C(F)(F)F,2,0.0,,,1032,False,CCCC[N+](C)(C)C.O=S(=O)([N-]S(=O)(=O)C(F)(F)F)C(F)(F)F,No changes
jTciS,303.15,100.0,1370.6,Massel et al. (2015),Liquid,0.8716,ethanol,,,CCCC[N+](C)(C)C.O=S(=O)([N-]S(=O)(=O)C(F)(F)F)C(F)(F)F,butyltrimethylammonium bis(trifluoromethylsulfonyl)imide,ABYLZx,CCO,ethanol,AAIsrh,CCCC[N+](C)(C)C,O=S(=O)([N-]S(=O)(=O)C(F)(F)F)C(F)(F)F,2,0.1284,,,1033,False,CCCC[N+](C)(C)C.O=S(=O)([N-]S(=O)(=O)C(F)(F)F)C(F)(F)F,No changes
jTciS,303.15,100.0,1348.1,Massel et al. (2015),Liquid,0.7415,ethanol,,,CCCC[N+](C)(C)C.O=S(=O)([N-]S(=O)(=O)C(F)(F)F)C(F)(F)F,butyltrimethylammonium bis(trifluoromethylsulfonyl)imide,ABYLZx,CCO,ethanol,AAIsrh,CCCC[N+](C)(C)C,O=S(=O)([N-]S(=O)(=O)C(F)(F)F)C(F)(F)F,2,0.2585,,,1034,False,CCCC[N+](C)(C)C.O=S(=O)([N-]S(=O)(=O)C(F)(F)F)C(F)(F)F,No changes
jTciS,303.15,100.0,1320.6,Massel et al. (2015),Liquid,0.6186,ethanol,,,CCCC[N+](C)(C)C.O=S(=O)([N-]S(=O)(=O)C(F)(F)F)C(F)(F)F,butyltrimethylammonium bis(trifluoromethylsulfonyl)imide,ABYLZx,CCO,ethanol,AAIsrh,CCCC[N+](C)(C)C,O=S(=O)([N-]S(=O)(=O)C(F)(F)F)C(F)(F)F,2,0.3814,,,1035,False,CCCC[N+](C)(C)C.O=S(=O)([N-]S(=O)(=O)C(F)(F)F)C(F)(F)F,No changes
jTciS,303.15,100.0,1284.7,Massel et al. (2015),Liquid,0.4969,ethanol,,,CCCC[N+](C)(C)C.O=S(=O)([N-]S(=O)(=O)C(F)(F)F)C(F)(F)F,butyltrimethylammonium bis(trifluoromethylsulfonyl)imide,ABYLZx,CCO,ethanol,AAIsrh,CCCC[N+](C)(C)C,O=S(=O)([N-]S(=O)(=O)C(F)(F)F)C(F)(F)F,2,0.5031,,,1036,False,CCCC[N+](C)(C)C.O=S(=O)([N-]S(=O)(=O)C(F)(F)F)C(F)(F)F,No changes
jTciS,303.15,100.0,1222.8,Massel et al. (2015),Liquid,0.3512999999999999,ethanol,,,CCCC[N+](C)(C)C.O=S(=O)([N-]S(=O)(=O)C(F)(F)F)C(F)(F)F,butyltrimethylammonium bis(trifluoromethylsulfonyl)imide,ABYLZx,CCO,ethanol,AAIsrh,CCCC[N+](C)(C)C,O=S(=O)([N-]S(=O)(=O)C(F)(F)F)C(F)(F)F,2,0.6487,,,1037,False,CCCC[N+](C)(C)C.O=S(=O)([N-]S(=O)(=O)C(F)(F)F)C(F)(F)F,No changes
jTciS,303.15,100.0,1132.7,Massel et al. (2015),Liquid,0.2177,ethanol,,,CCCC[N+](C)(C)C.O=S(=O)([N-]S(=O)(=O)C(F)(F)F)C(F)(F)F,butyltrimethylammonium bis(trifluoromethylsulfonyl)imide,ABYLZx,CCO,ethanol,AAIsrh,CCCC[N+](C)(C)C,O=S(=O)([N-]S(=O)(=O)C(F)(F)F)C(F)(F)F,2,0.7823,,,1038,False,CCCC[N+](C)(C)C.O=S(=O)([N-]S(=O)(=O)C(F)(F)F)C(F)(F)F,No changes
jTciS,303.15,100.0,1057.1,Massel et al. (2015),Liquid,0.1439,ethanol,,,CCCC[N+](C)(C)C.O=S(=O)([N-]S(=O)(=O)C(F)(F)F)C(F)(F)F,butyltrimethylammonium bis(trifluoromethylsulfonyl)imide,ABYLZx,CCO,ethanol,AAIsrh,CCCC[N+](C)(C)C,O=S(=O)([N-]S(=O)(=O)C(F)(F)F)C(F)(F)F,2,0.8561,,,1039,False,CCCC[N+](C)(C)C.O=S(=O)([N-]S(=O)(=O)C(F)(F)F)C(F)(F)F,No changes
jTciS,303.15,100.0,1031.4,Massel et al. (2015),Liquid,0.1237,ethanol,,,CCCC[N+](C)(C)C.O=S(=O)([N-]S(=O)(=O)C(F)(F)F)C(F)(F)F,butyltrimethylammonium bis(trifluoromethylsulfonyl)imide,ABYLZx,CCO,ethanol,AAIsrh,CCCC[N+](C)(C)C,O=S(=O)([N-]S(=O)(=O)C(F)(F)F)C(F)(F)F,2,0.8763,,,1040,False,CCCC[N+](C)(C)C.O=S(=O)([N-]S(=O)(=O)C(F)(F)F)C(F)(F)F,No changes
jTciS,303.15,100.0,991.0,Massel et al. (2015),Liquid,0.0960999999999999,ethanol,,,CCCC[N+](C)(C)C.O=S(=O)([N-]S(=O)(=O)C(F)(F)F)C(F)(F)F,butyltrimethylammonium bis(trifluoromethylsulfonyl)imide,ABYLZx,CCO,ethanol,AAIsrh,CCCC[N+](C)(C)C,O=S(=O)([N-]S(=O)(=O)C(F)(F)F)C(F)(F)F,2,0.9039,,,1041,False,CCCC[N+](C)(C)C.O=S(=O)([N-]S(=O)(=O)C(F)(F)F)C(F)(F)F,No changes
jTciS,303.15,100.0,907.4,Massel et al. (2015),Liquid,0.05,ethanol,,,CCCC[N+](C)(C)C.O=S(=O)([N-]S(=O)(=O)C(F)(F)F)C(F)(F)F,butyltrimethylammonium bis(trifluoromethylsulfonyl)imide,ABYLZx,CCO,ethanol,AAIsrh,CCCC[N+](C)(C)C,O=S(=O)([N-]S(=O)(=O)C(F)(F)F)C(F)(F)F,2,0.95,,,1042,False,CCCC[N+](C)(C)C.O=S(=O)([N-]S(=O)(=O)C(F)(F)F)C(F)(F)F,No changes
jTciS,303.15,100.0,851.4,Massel et al. (2015),Liquid,0.0254999999999999,ethanol,,,CCCC[N+](C)(C)C.O=S(=O)([N-]S(=O)(=O)C(F)(F)F)C(F)(F)F,butyltrimethylammonium bis(trifluoromethylsulfonyl)imide,ABYLZx,CCO,ethanol,AAIsrh,CCCC[N+](C)(C)C,O=S(=O)([N-]S(=O)(=O)C(F)(F)F)C(F)(F)F,2,0.9745,,,1043,False,CCCC[N+](C)(C)C.O=S(=O)([N-]S(=O)(=O)C(F)(F)F)C(F)(F)F,No changes
jTciS,303.15,100.0,781.0,Massel et al. (2015),Liquid,0.0,ethanol,,,CCCC[N+](C)(C)C.O=S(=O)([N-]S(=O)(=O)C(F)(F)F)C(F)(F)F,butyltrimethylammonium bis(trifluoromethylsulfonyl)imide,ABYLZx,CCO,ethanol,AAIsrh,CCCC[N+](C)(C)C,O=S(=O)([N-]S(=O)(=O)C(F)(F)F)C(F)(F)F,2,1.0,,,1044,False,CCCC[N+](C)(C)C.O=S(=O)([N-]S(=O)(=O)C(F)(F)F)C(F)(F)F,No changes
jTciS,308.15,100.0,1384.0,Massel et al. (2015),Liquid,1.0,ethanol,,,CCCC[N+](C)(C)C.O=S(=O)([N-]S(=O)(=O)C(F)(F)F)C(F)(F)F,butyltrimethylammonium bis(trifluoromethylsulfonyl)imide,ABYLZx,CCO,ethanol,AAIsrh,CCCC[N+](C)(C)C,O=S(=O)([N-]S(=O)(=O)C(F)(F)F)C(F)(F)F,2,0.0,,,1045,False,CCCC[N+](C)(C)C.O=S(=O)([N-]S(=O)(=O)C(F)(F)F)C(F)(F)F,No changes
jTciS,308.15,100.0,1366.2,Massel et al. (2015),Liquid,0.8716,ethanol,,,CCCC[N+](C)(C)C.O=S(=O)([N-]S(=O)(=O)C(F)(F)F)C(F)(F)F,butyltrimethylammonium bis(trifluoromethylsulfonyl)imide,ABYLZx,CCO,ethanol,AAIsrh,CCCC[N+](C)(C)C,O=S(=O)([N-]S(=O)(=O)C(F)(F)F)C(F)(F)F,2,0.1284,,,1046,False,CCCC[N+](C)(C)C.O=S(=O)([N-]S(=O)(=O)C(F)(F)F)C(F)(F)F,No changes
jTciS,308.15,100.0,1343.7,Massel et al. (2015),Liquid,0.7415,ethanol,,,CCCC[N+](C)(C)C.O=S(=O)([N-]S(=O)(=O)C(F)(F)F)C(F)(F)F,butyltrimethylammonium bis(trifluoromethylsulfonyl)imide,ABYLZx,CCO,ethanol,AAIsrh,CCCC[N+](C)(C)C,O=S(=O)([N-]S(=O)(=O)C(F)(F)F)C(F)(F)F,2,0.2585,,,1047,False,CCCC[N+](C)(C)C.O=S(=O)([N-]S(=O)(=O)C(F)(F)F)C(F)(F)F,No changes
jTciS,308.15,100.0,1316.1,Massel et al. (2015),Liquid,0.6186,ethanol,,,CCCC[N+](C)(C)C.O=S(=O)([N-]S(=O)(=O)C(F)(F)F)C(F)(F)F,butyltrimethylammonium bis(trifluoromethylsulfonyl)imide,ABYLZx,CCO,ethanol,AAIsrh,CCCC[N+](C)(C)C,O=S(=O)([N-]S(=O)(=O)C(F)(F)F)C(F)(F)F,2,0.3814,,,1048,False,CCCC[N+](C)(C)C.O=S(=O)([N-]S(=O)(=O)C(F)(F)F)C(F)(F)F,No changes