setid,Temperature (K),Pressure (kPa),Density (kg/m3),reference,phases,Mole fraction,Mole fraction of compound name,Weight fraction,Weight fraction of compound name,IL_SMILES,IL_name,IL_ID,Solvent_SMILES,Solvent_name,Solvent_ID,IL_cation_SMILES,IL_anion_SMILES,IL_component_number,Mole fraction of solvent,IL_MW,Solvent_MW,Record_ID,Contains_Metal,Standardized_IL_SMILES,Changes
gpuuI,318.15,101.0,987.9,Ortega et al. (2008),Liquid,0.2494,1-butyl-4-methylpyridinium tetrafluoroborate,,,CCCC[n+]1ccc(C)cc1.F[B-](F)(F)F,1-butyl-4-methylpyridinium tetrafluoroborate,AAtevY,CCO,ethanol,AAIsrh,CCCC[n+]1ccc(C)cc1,F[B-](F)(F)F,2,,,,1531,False,CCCC[n+]1ccc(C)cc1.F[B-](F)(F)F,No changes
gpuuI,318.15,101.0,1011.0,Ortega et al. (2008),Liquid,0.2968,1-butyl-4-methylpyridinium tetrafluoroborate,,,CCCC[n+]1ccc(C)cc1.F[B-](F)(F)F,1-butyl-4-methylpyridinium tetrafluoroborate,AAtevY,CCO,ethanol,AAIsrh,CCCC[n+]1ccc(C)cc1,F[B-](F)(F)F,2,,,,1532,False,CCCC[n+]1ccc(C)cc1.F[B-](F)(F)F,No changes
gpuuI,318.15,101.0,1046.8,Ortega et al. (2008),Liquid,0.3855,1-butyl-4-methylpyridinium tetrafluoroborate,,,CCCC[n+]1ccc(C)cc1.F[B-](F)(F)F,1-butyl-4-methylpyridinium tetrafluoroborate,AAtevY,CCO,ethanol,AAIsrh,CCCC[n+]1ccc(C)cc1,F[B-](F)(F)F,2,,,,1533,False,CCCC[n+]1ccc(C)cc1.F[B-](F)(F)F,No changes
gpuuI,318.15,101.0,1080.9,Ortega et al. (2008),Liquid,0.4947,1-butyl-4-methylpyridinium tetrafluoroborate,,,CCCC[n+]1ccc(C)cc1.F[B-](F)(F)F,1-butyl-4-methylpyridinium tetrafluoroborate,AAtevY,CCO,ethanol,AAIsrh,CCCC[n+]1ccc(C)cc1,F[B-](F)(F)F,2,,,,1534,False,CCCC[n+]1ccc(C)cc1.F[B-](F)(F)F,No changes
gpuuI,318.15,101.0,1103.6,Ortega et al. (2008),Liquid,0.5877,1-butyl-4-methylpyridinium tetrafluoroborate,,,CCCC[n+]1ccc(C)cc1.F[B-](F)(F)F,1-butyl-4-methylpyridinium tetrafluoroborate,AAtevY,CCO,ethanol,AAIsrh,CCCC[n+]1ccc(C)cc1,F[B-](F)(F)F,2,,,,1535,False,CCCC[n+]1ccc(C)cc1.F[B-](F)(F)F,No changes
gpuuI,318.15,101.0,1123.2,Ortega et al. (2008),Liquid,0.6821,1-butyl-4-methylpyridinium tetrafluoroborate,,,CCCC[n+]1ccc(C)cc1.F[B-](F)(F)F,1-butyl-4-methylpyridinium tetrafluoroborate,AAtevY,CCO,ethanol,AAIsrh,CCCC[n+]1ccc(C)cc1,F[B-](F)(F)F,2,,,,1536,False,CCCC[n+]1ccc(C)cc1.F[B-](F)(F)F,No changes
gpuuI,318.15,101.0,1139.8,Ortega et al. (2008),Liquid,0.7798,1-butyl-4-methylpyridinium tetrafluoroborate,,,CCCC[n+]1ccc(C)cc1.F[B-](F)(F)F,1-butyl-4-methylpyridinium tetrafluoroborate,AAtevY,CCO,ethanol,AAIsrh,CCCC[n+]1ccc(C)cc1,F[B-](F)(F)F,2,,,,1537,False,CCCC[n+]1ccc(C)cc1.F[B-](F)(F)F,No changes
gpuuI,318.15,101.0,1146.8,Ortega et al. (2008),Liquid,0.8267,1-butyl-4-methylpyridinium tetrafluoroborate,,,CCCC[n+]1ccc(C)cc1.F[B-](F)(F)F,1-butyl-4-methylpyridinium tetrafluoroborate,AAtevY,CCO,ethanol,AAIsrh,CCCC[n+]1ccc(C)cc1,F[B-](F)(F)F,2,,,,1538,False,CCCC[n+]1ccc(C)cc1.F[B-](F)(F)F,No changes
gpuuI,318.15,101.0,1153.8,Ortega et al. (2008),Liquid,0.8776,1-butyl-4-methylpyridinium tetrafluoroborate,,,CCCC[n+]1ccc(C)cc1.F[B-](F)(F)F,1-butyl-4-methylpyridinium tetrafluoroborate,AAtevY,CCO,ethanol,AAIsrh,CCCC[n+]1ccc(C)cc1,F[B-](F)(F)F,2,,,,1539,False,CCCC[n+]1ccc(C)cc1.F[B-](F)(F)F,No changes
ientr,298.15,100.0,785.3,Bhanuprakash et al. (2018),Liquid,0.0,1-ethyl-3-methylimidazolium hydrogen sulfate,,,CC[n+]1ccn(C)c1.O=S(=O)([O-])O,1-ethyl-3-methylimidazolium hydrogen sulfate,AAoChY,CCO,ethanol,AAIsrh,CC[n+]1ccn(C)c1,O=S(=O)([O-])O,2,,,,1540,False,CC[n+]1ccn(C)c1.O=S(=O)([O-])O,No changes
ientr,298.15,100.0,829.7,Bhanuprakash et al. (2018),Liquid,0.028,1-ethyl-3-methylimidazolium hydrogen sulfate,,,CC[n+]1ccn(C)c1.O=S(=O)([O-])O,1-ethyl-3-methylimidazolium hydrogen sulfate,AAoChY,CCO,ethanol,AAIsrh,CC[n+]1ccn(C)c1,O=S(=O)([O-])O,2,,,,1541,False,CC[n+]1ccn(C)c1.O=S(=O)([O-])O,No changes
ientr,298.15,100.0,910.7,Bhanuprakash et al. (2018),Liquid,0.088,1-ethyl-3-methylimidazolium hydrogen sulfate,,,CC[n+]1ccn(C)c1.O=S(=O)([O-])O,1-ethyl-3-methylimidazolium hydrogen sulfate,AAoChY,CCO,ethanol,AAIsrh,CC[n+]1ccn(C)c1,O=S(=O)([O-])O,2,,,,1542,False,CC[n+]1ccn(C)c1.O=S(=O)([O-])O,No changes
ientr,298.15,100.0,1007.5,Bhanuprakash et al. (2018),Liquid,0.178,1-ethyl-3-methylimidazolium hydrogen sulfate,,,CC[n+]1ccn(C)c1.O=S(=O)([O-])O,1-ethyl-3-methylimidazolium hydrogen sulfate,AAoChY,CCO,ethanol,AAIsrh,CC[n+]1ccn(C)c1,O=S(=O)([O-])O,2,,,,1543,False,CC[n+]1ccn(C)c1.O=S(=O)([O-])O,No changes
ientr,298.15,100.0,1130.0,Bhanuprakash et al. (2018),Liquid,0.338,1-ethyl-3-methylimidazolium hydrogen sulfate,,,CC[n+]1ccn(C)c1.O=S(=O)([O-])O,1-ethyl-3-methylimidazolium hydrogen sulfate,AAoChY,CCO,ethanol,AAIsrh,CC[n+]1ccn(C)c1,O=S(=O)([O-])O,2,,,,1544,False,CC[n+]1ccn(C)c1.O=S(=O)([O-])O,No changes
ientr,298.15,100.0,1203.9,Bhanuprakash et al. (2018),Liquid,0.473,1-ethyl-3-methylimidazolium hydrogen sulfate,,,CC[n+]1ccn(C)c1.O=S(=O)([O-])O,1-ethyl-3-methylimidazolium hydrogen sulfate,AAoChY,CCO,ethanol,AAIsrh,CC[n+]1ccn(C)c1,O=S(=O)([O-])O,2,,,,1545,False,CC[n+]1ccn(C)c1.O=S(=O)([O-])O,No changes
ientr,298.15,100.0,1248.7,Bhanuprakash et al. (2018),Liquid,0.577,1-ethyl-3-methylimidazolium hydrogen sulfate,,,CC[n+]1ccn(C)c1.O=S(=O)([O-])O,1-ethyl-3-methylimidazolium hydrogen sulfate,AAoChY,CCO,ethanol,AAIsrh,CC[n+]1ccn(C)c1,O=S(=O)([O-])O,2,,,,1546,False,CC[n+]1ccn(C)c1.O=S(=O)([O-])O,No changes
ientr,298.15,100.0,1281.9,Bhanuprakash et al. (2018),Liquid,0.669,1-ethyl-3-methylimidazolium hydrogen sulfate,,,CC[n+]1ccn(C)c1.O=S(=O)([O-])O,1-ethyl-3-methylimidazolium hydrogen sulfate,AAoChY,CCO,ethanol,AAIsrh,CC[n+]1ccn(C)c1,O=S(=O)([O-])O,2,,,,1547,False,CC[n+]1ccn(C)c1.O=S(=O)([O-])O,No changes
ientr,298.15,100.0,1314.4,Bhanuprakash et al. (2018),Liquid,0.776,1-ethyl-3-methylimidazolium hydrogen sulfate,,,CC[n+]1ccn(C)c1.O=S(=O)([O-])O,1-ethyl-3-methylimidazolium hydrogen sulfate,AAoChY,CCO,ethanol,AAIsrh,CC[n+]1ccn(C)c1,O=S(=O)([O-])O,2,,,,1548,False,CC[n+]1ccn(C)c1.O=S(=O)([O-])O,No changes
ientr,298.15,100.0,1340.7,Bhanuprakash et al. (2018),Liquid,0.88,1-ethyl-3-methylimidazolium hydrogen sulfate,,,CC[n+]1ccn(C)c1.O=S(=O)([O-])O,1-ethyl-3-methylimidazolium hydrogen sulfate,AAoChY,CCO,ethanol,AAIsrh,CC[n+]1ccn(C)c1,O=S(=O)([O-])O,2,,,,1549,False,CC[n+]1ccn(C)c1.O=S(=O)([O-])O,No changes
ientr,298.15,100.0,1365.8,Bhanuprakash et al. (2018),Liquid,1.0,1-ethyl-3-methylimidazolium hydrogen sulfate,,,CC[n+]1ccn(C)c1.O=S(=O)([O-])O,1-ethyl-3-methylimidazolium hydrogen sulfate,AAoChY,CCO,ethanol,AAIsrh,CC[n+]1ccn(C)c1,O=S(=O)([O-])O,2,,,,1550,False,CC[n+]1ccn(C)c1.O=S(=O)([O-])O,No changes
ientr,303.15,100.0,781.0,Bhanuprakash et al. (2018),Liquid,0.0,1-ethyl-3-methylimidazolium hydrogen sulfate,,,CC[n+]1ccn(C)c1.O=S(=O)([O-])O,1-ethyl-3-methylimidazolium hydrogen sulfate,AAoChY,CCO,ethanol,AAIsrh,CC[n+]1ccn(C)c1,O=S(=O)([O-])O,2,,,,1551,False,CC[n+]1ccn(C)c1.O=S(=O)([O-])O,No changes
ientr,303.15,100.0,825.5,Bhanuprakash et al. (2018),Liquid,0.028,1-ethyl-3-methylimidazolium hydrogen sulfate,,,CC[n+]1ccn(C)c1.O=S(=O)([O-])O,1-ethyl-3-methylimidazolium hydrogen sulfate,AAoChY,CCO,ethanol,AAIsrh,CC[n+]1ccn(C)c1,O=S(=O)([O-])O,2,,,,1552,False,CC[n+]1ccn(C)c1.O=S(=O)([O-])O,No changes
ientr,303.15,100.0,906.7,Bhanuprakash et al. (2018),Liquid,0.088,1-ethyl-3-methylimidazolium hydrogen sulfate,,,CC[n+]1ccn(C)c1.O=S(=O)([O-])O,1-ethyl-3-methylimidazolium hydrogen sulfate,AAoChY,CCO,ethanol,AAIsrh,CC[n+]1ccn(C)c1,O=S(=O)([O-])O,2,,,,1553,False,CC[n+]1ccn(C)c1.O=S(=O)([O-])O,No changes
ientr,303.15,100.0,1003.7,Bhanuprakash et al. (2018),Liquid,0.178,1-ethyl-3-methylimidazolium hydrogen sulfate,,,CC[n+]1ccn(C)c1.O=S(=O)([O-])O,1-ethyl-3-methylimidazolium hydrogen sulfate,AAoChY,CCO,ethanol,AAIsrh,CC[n+]1ccn(C)c1,O=S(=O)([O-])O,2,,,,1554,False,CC[n+]1ccn(C)c1.O=S(=O)([O-])O,No changes
ientr,303.15,100.0,1126.5,Bhanuprakash et al. (2018),Liquid,0.338,1-ethyl-3-methylimidazolium hydrogen sulfate,,,CC[n+]1ccn(C)c1.O=S(=O)([O-])O,1-ethyl-3-methylimidazolium hydrogen sulfate,AAoChY,CCO,ethanol,AAIsrh,CC[n+]1ccn(C)c1,O=S(=O)([O-])O,2,,,,1555,False,CC[n+]1ccn(C)c1.O=S(=O)([O-])O,No changes
ientr,303.15,100.0,1200.7,Bhanuprakash et al. (2018),Liquid,0.473,1-ethyl-3-methylimidazolium hydrogen sulfate,,,CC[n+]1ccn(C)c1.O=S(=O)([O-])O,1-ethyl-3-methylimidazolium hydrogen sulfate,AAoChY,CCO,ethanol,AAIsrh,CC[n+]1ccn(C)c1,O=S(=O)([O-])O,2,,,,1556,False,CC[n+]1ccn(C)c1.O=S(=O)([O-])O,No changes
ientr,303.15,100.0,1245.6,Bhanuprakash et al. (2018),Liquid,0.577,1-ethyl-3-methylimidazolium hydrogen sulfate,,,CC[n+]1ccn(C)c1.O=S(=O)([O-])O,1-ethyl-3-methylimidazolium hydrogen sulfate,AAoChY,CCO,ethanol,AAIsrh,CC[n+]1ccn(C)c1,O=S(=O)([O-])O,2,,,,1557,False,CC[n+]1ccn(C)c1.O=S(=O)([O-])O,No changes
ientr,303.15,100.0,1278.7,Bhanuprakash et al. (2018),Liquid,0.669,1-ethyl-3-methylimidazolium hydrogen sulfate,,,CC[n+]1ccn(C)c1.O=S(=O)([O-])O,1-ethyl-3-methylimidazolium hydrogen sulfate,AAoChY,CCO,ethanol,AAIsrh,CC[n+]1ccn(C)c1,O=S(=O)([O-])O,2,,,,1558,False,CC[n+]1ccn(C)c1.O=S(=O)([O-])O,No changes
ientr,303.15,100.0,1311.2,Bhanuprakash et al. (2018),Liquid,0.776,1-ethyl-3-methylimidazolium hydrogen sulfate,,,CC[n+]1ccn(C)c1.O=S(=O)([O-])O,1-ethyl-3-methylimidazolium hydrogen sulfate,AAoChY,CCO,ethanol,AAIsrh,CC[n+]1ccn(C)c1,O=S(=O)([O-])O,2,,,,1559,False,CC[n+]1ccn(C)c1.O=S(=O)([O-])O,No changes
ientr,303.15,100.0,1337.5,Bhanuprakash et al. (2018),Liquid,0.88,1-ethyl-3-methylimidazolium hydrogen sulfate,,,CC[n+]1ccn(C)c1.O=S(=O)([O-])O,1-ethyl-3-methylimidazolium hydrogen sulfate,AAoChY,CCO,ethanol,AAIsrh,CC[n+]1ccn(C)c1,O=S(=O)([O-])O,2,,,,1560,False,CC[n+]1ccn(C)c1.O=S(=O)([O-])O,No changes
ientr,303.15,100.0,1362.6,Bhanuprakash et al. (2018),Liquid,1.0,1-ethyl-3-methylimidazolium hydrogen sulfate,,,CC[n+]1ccn(C)c1.O=S(=O)([O-])O,1-ethyl-3-methylimidazolium hydrogen sulfate,AAoChY,CCO,ethanol,AAIsrh,CC[n+]1ccn(C)c1,O=S(=O)([O-])O,2,,,,1561,False,CC[n+]1ccn(C)c1.O=S(=O)([O-])O,No changes
ientr,308.15,100.0,776.7,Bhanuprakash et al. (2018),Liquid,0.0,1-ethyl-3-methylimidazolium hydrogen sulfate,,,CC[n+]1ccn(C)c1.O=S(=O)([O-])O,1-ethyl-3-methylimidazolium hydrogen sulfate,AAoChY,CCO,ethanol,AAIsrh,CC[n+]1ccn(C)c1,O=S(=O)([O-])O,2,,,,1562,False,CC[n+]1ccn(C)c1.O=S(=O)([O-])O,No changes
ientr,308.15,100.0,821.3,Bhanuprakash et al. (2018),Liquid,0.028,1-ethyl-3-methylimidazolium hydrogen sulfate,,,CC[n+]1ccn(C)c1.O=S(=O)([O-])O,1-ethyl-3-methylimidazolium hydrogen sulfate,AAoChY,CCO,ethanol,AAIsrh,CC[n+]1ccn(C)c1,O=S(=O)([O-])O,2,,,,1563,False,CC[n+]1ccn(C)c1.O=S(=O)([O-])O,No changes
ientr,308.15,100.0,902.7,Bhanuprakash et al. (2018),Liquid,0.088,1-ethyl-3-methylimidazolium hydrogen sulfate,,,CC[n+]1ccn(C)c1.O=S(=O)([O-])O,1-ethyl-3-methylimidazolium hydrogen sulfate,AAoChY,CCO,ethanol,AAIsrh,CC[n+]1ccn(C)c1,O=S(=O)([O-])O,2,,,,1564,False,CC[n+]1ccn(C)c1.O=S(=O)([O-])O,No changes
ientr,308.15,100.0,1000.0,Bhanuprakash et al. (2018),Liquid,0.178,1-ethyl-3-methylimidazolium hydrogen sulfate,,,CC[n+]1ccn(C)c1.O=S(=O)([O-])O,1-ethyl-3-methylimidazolium hydrogen sulfate,AAoChY,CCO,ethanol,AAIsrh,CC[n+]1ccn(C)c1,O=S(=O)([O-])O,2,,,,1565,False,CC[n+]1ccn(C)c1.O=S(=O)([O-])O,No changes
ientr,308.15,100.0,1123.1,Bhanuprakash et al. (2018),Liquid,0.338,1-ethyl-3-methylimidazolium hydrogen sulfate,,,CC[n+]1ccn(C)c1.O=S(=O)([O-])O,1-ethyl-3-methylimidazolium hydrogen sulfate,AAoChY,CCO,ethanol,AAIsrh,CC[n+]1ccn(C)c1,O=S(=O)([O-])O,2,,,,1566,False,CC[n+]1ccn(C)c1.O=S(=O)([O-])O,No changes
ientr,308.15,100.0,1197.4,Bhanuprakash et al. (2018),Liquid,0.473,1-ethyl-3-methylimidazolium hydrogen sulfate,,,CC[n+]1ccn(C)c1.O=S(=O)([O-])O,1-ethyl-3-methylimidazolium hydrogen sulfate,AAoChY,CCO,ethanol,AAIsrh,CC[n+]1ccn(C)c1,O=S(=O)([O-])O,2,,,,1567,False,CC[n+]1ccn(C)c1.O=S(=O)([O-])O,No changes
ientr,308.15,100.0,1242.4,Bhanuprakash et al. (2018),Liquid,0.577,1-ethyl-3-methylimidazolium hydrogen sulfate,,,CC[n+]1ccn(C)c1.O=S(=O)([O-])O,1-ethyl-3-methylimidazolium hydrogen sulfate,AAoChY,CCO,ethanol,AAIsrh,CC[n+]1ccn(C)c1,O=S(=O)([O-])O,2,,,,1568,False,CC[n+]1ccn(C)c1.O=S(=O)([O-])O,No changes
ientr,308.15,100.0,1275.5,Bhanuprakash et al. (2018),Liquid,0.669,1-ethyl-3-methylimidazolium hydrogen sulfate,,,CC[n+]1ccn(C)c1.O=S(=O)([O-])O,1-ethyl-3-methylimidazolium hydrogen sulfate,AAoChY,CCO,ethanol,AAIsrh,CC[n+]1ccn(C)c1,O=S(=O)([O-])O,2,,,,1569,False,CC[n+]1ccn(C)c1.O=S(=O)([O-])O,No changes
ientr,308.15,100.0,1308.0,Bhanuprakash et al. (2018),Liquid,0.776,1-ethyl-3-methylimidazolium hydrogen sulfate,,,CC[n+]1ccn(C)c1.O=S(=O)([O-])O,1-ethyl-3-methylimidazolium hydrogen sulfate,AAoChY,CCO,ethanol,AAIsrh,CC[n+]1ccn(C)c1,O=S(=O)([O-])O,2,,,,1570,False,CC[n+]1ccn(C)c1.O=S(=O)([O-])O,No changes
ientr,308.15,100.0,1334.3,Bhanuprakash et al. (2018),Liquid,0.88,1-ethyl-3-methylimidazolium hydrogen sulfate,,,CC[n+]1ccn(C)c1.O=S(=O)([O-])O,1-ethyl-3-methylimidazolium hydrogen sulfate,AAoChY,CCO,ethanol,AAIsrh,CC[n+]1ccn(C)c1,O=S(=O)([O-])O,2,,,,1571,False,CC[n+]1ccn(C)c1.O=S(=O)([O-])O,No changes
ientr,308.15,100.0,1359.5,Bhanuprakash et al. (2018),Liquid,1.0,1-ethyl-3-methylimidazolium hydrogen sulfate,,,CC[n+]1ccn(C)c1.O=S(=O)([O-])O,1-ethyl-3-methylimidazolium hydrogen sulfate,AAoChY,CCO,ethanol,AAIsrh,CC[n+]1ccn(C)c1,O=S(=O)([O-])O,2,,,,1572,False,CC[n+]1ccn(C)c1.O=S(=O)([O-])O,No changes
ientr,313.15,100.0,772.3,Bhanuprakash et al. (2018),Liquid,0.0,1-ethyl-3-methylimidazolium hydrogen sulfate,,,CC[n+]1ccn(C)c1.O=S(=O)([O-])O,1-ethyl-3-methylimidazolium hydrogen sulfate,AAoChY,CCO,ethanol,AAIsrh,CC[n+]1ccn(C)c1,O=S(=O)([O-])O,2,,,,1573,False,CC[n+]1ccn(C)c1.O=S(=O)([O-])O,No changes
ientr,313.15,100.0,817.0,Bhanuprakash et al. (2018),Liquid,0.028,1-ethyl-3-methylimidazolium hydrogen sulfate,,,CC[n+]1ccn(C)c1.O=S(=O)([O-])O,1-ethyl-3-methylimidazolium hydrogen sulfate,AAoChY,CCO,ethanol,AAIsrh,CC[n+]1ccn(C)c1,O=S(=O)([O-])O,2,,,,1574,False,CC[n+]1ccn(C)c1.O=S(=O)([O-])O,No changes
ientr,313.15,100.0,898.6,Bhanuprakash et al. (2018),Liquid,0.088,1-ethyl-3-methylimidazolium hydrogen sulfate,,,CC[n+]1ccn(C)c1.O=S(=O)([O-])O,1-ethyl-3-methylimidazolium hydrogen sulfate,AAoChY,CCO,ethanol,AAIsrh,CC[n+]1ccn(C)c1,O=S(=O)([O-])O,2,,,,1575,False,CC[n+]1ccn(C)c1.O=S(=O)([O-])O,No changes
ientr,313.15,100.0,996.1,Bhanuprakash et al. (2018),Liquid,0.178,1-ethyl-3-methylimidazolium hydrogen sulfate,,,CC[n+]1ccn(C)c1.O=S(=O)([O-])O,1-ethyl-3-methylimidazolium hydrogen sulfate,AAoChY,CCO,ethanol,AAIsrh,CC[n+]1ccn(C)c1,O=S(=O)([O-])O,2,,,,1576,False,CC[n+]1ccn(C)c1.O=S(=O)([O-])O,No changes
ientr,313.15,100.0,1119.5,Bhanuprakash et al. (2018),Liquid,0.338,1-ethyl-3-methylimidazolium hydrogen sulfate,,,CC[n+]1ccn(C)c1.O=S(=O)([O-])O,1-ethyl-3-methylimidazolium hydrogen sulfate,AAoChY,CCO,ethanol,AAIsrh,CC[n+]1ccn(C)c1,O=S(=O)([O-])O,2,,,,1577,False,CC[n+]1ccn(C)c1.O=S(=O)([O-])O,No changes
ientr,313.15,100.0,1194.0,Bhanuprakash et al. (2018),Liquid,0.473,1-ethyl-3-methylimidazolium hydrogen sulfate,,,CC[n+]1ccn(C)c1.O=S(=O)([O-])O,1-ethyl-3-methylimidazolium hydrogen sulfate,AAoChY,CCO,ethanol,AAIsrh,CC[n+]1ccn(C)c1,O=S(=O)([O-])O,2,,,,1578,False,CC[n+]1ccn(C)c1.O=S(=O)([O-])O,No changes
ientr,313.15,100.0,1239.1,Bhanuprakash et al. (2018),Liquid,0.577,1-ethyl-3-methylimidazolium hydrogen sulfate,,,CC[n+]1ccn(C)c1.O=S(=O)([O-])O,1-ethyl-3-methylimidazolium hydrogen sulfate,AAoChY,CCO,ethanol,AAIsrh,CC[n+]1ccn(C)c1,O=S(=O)([O-])O,2,,,,1579,False,CC[n+]1ccn(C)c1.O=S(=O)([O-])O,No changes
ientr,313.15,100.0,1272.3,Bhanuprakash et al. (2018),Liquid,0.669,1-ethyl-3-methylimidazolium hydrogen sulfate,,,CC[n+]1ccn(C)c1.O=S(=O)([O-])O,1-ethyl-3-methylimidazolium hydrogen sulfate,AAoChY,CCO,ethanol,AAIsrh,CC[n+]1ccn(C)c1,O=S(=O)([O-])O,2,,,,1580,False,CC[n+]1ccn(C)c1.O=S(=O)([O-])O,No changes
ientr,313.15,100.0,1304.8,Bhanuprakash et al. (2018),Liquid,0.776,1-ethyl-3-methylimidazolium hydrogen sulfate,,,CC[n+]1ccn(C)c1.O=S(=O)([O-])O,1-ethyl-3-methylimidazolium hydrogen sulfate,AAoChY,CCO,ethanol,AAIsrh,CC[n+]1ccn(C)c1,O=S(=O)([O-])O,2,,,,1581,False,CC[n+]1ccn(C)c1.O=S(=O)([O-])O,No changes
ientr,313.15,100.0,1331.1,Bhanuprakash et al. (2018),Liquid,0.88,1-ethyl-3-methylimidazolium hydrogen sulfate,,,CC[n+]1ccn(C)c1.O=S(=O)([O-])O,1-ethyl-3-methylimidazolium hydrogen sulfate,AAoChY,CCO,ethanol,AAIsrh,CC[n+]1ccn(C)c1,O=S(=O)([O-])O,2,,,,1582,False,CC[n+]1ccn(C)c1.O=S(=O)([O-])O,No changes
ientr,313.15,100.0,1356.4,Bhanuprakash et al. (2018),Liquid,1.0,1-ethyl-3-methylimidazolium hydrogen sulfate,,,CC[n+]1ccn(C)c1.O=S(=O)([O-])O,1-ethyl-3-methylimidazolium hydrogen sulfate,AAoChY,CCO,ethanol,AAIsrh,CC[n+]1ccn(C)c1,O=S(=O)([O-])O,2,,,,1583,False,CC[n+]1ccn(C)c1.O=S(=O)([O-])O,No changes
qRoeY,298.15,101.0,851.7,Segade et al. (2016),Liquid,0.0941,ethylammonium nitrate,,,CC[NH3+].O=[N+]([O-])[O-],ethylammonium nitrate,AAUohR,CCO,ethanol,AAIsrh,CC[NH3+],O=[N+]([O-])[O-],2,,,,1584,False,CC[NH3+].O=[N+]([O-])[O-],No changes
qRoeY,298.15,101.0,892.9,Segade et al. (2016),Liquid,0.161,ethylammonium nitrate,,,CC[NH3+].O=[N+]([O-])[O-],ethylammonium nitrate,AAUohR,CCO,ethanol,AAIsrh,CC[NH3+],O=[N+]([O-])[O-],2,,,,1585,False,CC[NH3+].O=[N+]([O-])[O-],No changes
qRoeY,298.15,101.0,921.6,Segade et al. (2016),Liquid,0.2121,ethylammonium nitrate,,,CC[NH3+].O=[N+]([O-])[O-],ethylammonium nitrate,AAUohR,CCO,ethanol,AAIsrh,CC[NH3+],O=[N+]([O-])[O-],2,,,,1586,False,CC[NH3+].O=[N+]([O-])[O-],No changes
qRoeY,298.15,101.0,939.0,Segade et al. (2016),Liquid,0.245,ethylammonium nitrate,,,CC[NH3+].O=[N+]([O-])[O-],ethylammonium nitrate,AAUohR,CCO,ethanol,AAIsrh,CC[NH3+],O=[N+]([O-])[O-],2,,,,1587,False,CC[NH3+].O=[N+]([O-])[O-],No changes
qRoeY,298.15,101.0,982.7,Segade et al. (2016),Liquid,0.3318,ethylammonium nitrate,,,CC[NH3+].O=[N+]([O-])[O-],ethylammonium nitrate,AAUohR,CCO,ethanol,AAIsrh,CC[NH3+],O=[N+]([O-])[O-],2,,,,1588,False,CC[NH3+].O=[N+]([O-])[O-],No changes
qRoeY,298.15,101.0,1025.5,Segade et al. (2016),Liquid,0.4281,ethylammonium nitrate,,,CC[NH3+].O=[N+]([O-])[O-],ethylammonium nitrate,AAUohR,CCO,ethanol,AAIsrh,CC[NH3+],O=[N+]([O-])[O-],2,,,,1589,False,CC[NH3+].O=[N+]([O-])[O-],No changes
qRoeY,298.15,101.0,1077.4,Segade et al. (2016),Liquid,0.5603,ethylammonium nitrate,,,CC[NH3+].O=[N+]([O-])[O-],ethylammonium nitrate,AAUohR,CCO,ethanol,AAIsrh,CC[NH3+],O=[N+]([O-])[O-],2,,,,1590,False,CC[NH3+].O=[N+]([O-])[O-],No changes
qRoeY,298.15,101.0,1115.2,Segade et al. (2016),Liquid,0.6702,ethylammonium nitrate,,,CC[NH3+].O=[N+]([O-])[O-],ethylammonium nitrate,AAUohR,CCO,ethanol,AAIsrh,CC[NH3+],O=[N+]([O-])[O-],2,,,,1591,False,CC[NH3+].O=[N+]([O-])[O-],No changes
qRoeY,298.15,101.0,1154.9,Segade et al. (2016),Liquid,0.8009,ethylammonium nitrate,,,CC[NH3+].O=[N+]([O-])[O-],ethylammonium nitrate,AAUohR,CCO,ethanol,AAIsrh,CC[NH3+],O=[N+]([O-])[O-],2,,,,1592,False,CC[NH3+].O=[N+]([O-])[O-],No changes
qEurR,288.15,101.0,1197.2,Barros et al. (2018),Liquid,0.9457,ethanol,,,[NH3+]CCO.CC(O)C(=O)[O-],2-hydroxyethylammonium lactate,AAdDEB,CCO,ethanol,AAIsrh,[NH3+]CCO,CC(O)C(=O)[O-],2,0.0543,,,1593,False,[NH3+]CCO.CC(O)C(=O)[O-],No changes
qEurR,288.15,101.0,1189.1,Barros et al. (2018),Liquid,0.8949,ethanol,,,[NH3+]CCO.CC(O)C(=O)[O-],2-hydroxyethylammonium lactate,AAdDEB,CCO,ethanol,AAIsrh,[NH3+]CCO,CC(O)C(=O)[O-],2,0.1051,,,1594,False,[NH3+]CCO.CC(O)C(=O)[O-],No changes
qEurR,288.15,101.0,1167.8,Barros et al. (2018),Liquid,0.794,ethanol,,,[NH3+]CCO.CC(O)C(=O)[O-],2-hydroxyethylammonium lactate,AAdDEB,CCO,ethanol,AAIsrh,[NH3+]CCO,CC(O)C(=O)[O-],2,0.206,,,1595,False,[NH3+]CCO.CC(O)C(=O)[O-],No changes
qEurR,288.15,101.0,1142.7,Barros et al. (2018),Liquid,0.6849000000000001,ethanol,,,[NH3+]CCO.CC(O)C(=O)[O-],2-hydroxyethylammonium lactate,AAdDEB,CCO,ethanol,AAIsrh,[NH3+]CCO,CC(O)C(=O)[O-],2,0.3151,,,1596,False,[NH3+]CCO.CC(O)C(=O)[O-],No changes
qEurR,288.15,101.0,1115.3,Barros et al. (2018),Liquid,0.5856,ethanol,,,[NH3+]CCO.CC(O)C(=O)[O-],2-hydroxyethylammonium lactate,AAdDEB,CCO,ethanol,AAIsrh,[NH3+]CCO,CC(O)C(=O)[O-],2,0.4144,,,1597,False,[NH3+]CCO.CC(O)C(=O)[O-],No changes
qEurR,288.15,101.0,1083.6,Barros et al. (2018),Liquid,0.4878,ethanol,,,[NH3+]CCO.CC(O)C(=O)[O-],2-hydroxyethylammonium lactate,AAdDEB,CCO,ethanol,AAIsrh,[NH3+]CCO,CC(O)C(=O)[O-],2,0.5122,,,1598,False,[NH3+]CCO.CC(O)C(=O)[O-],No changes