setid,Temperature (K),Pressure (kPa),Density (kg/m3),reference,phases,Mole fraction,Mole fraction of compound name,Weight fraction,Weight fraction of compound name,IL_SMILES,IL_name,IL_ID,Solvent_SMILES,Solvent_name,Solvent_ID,IL_cation_SMILES,IL_anion_SMILES,IL_component_number,Mole fraction of solvent,IL_MW,Solvent_MW,Record_ID,Contains_Metal,Standardized_IL_SMILES,Changes
IlWGD,298.0,100.0,1231.5,Yoshimura et al. (2021),Liquid,0.2993,ethanol,,,CCCC[n+]1ccn(C)c1.O=S(=O)([N-]S(=O)(=O)C(F)(F)F)C(F)(F)F,1-butyl-3-methylimidazolium bis(trifluoromethylsulfonyl)imide,ABchwx,CCO,ethanol,AAIsrh,CCCC[n+]1ccn(C)c1,O=S(=O)([N-]S(=O)(=O)C(F)(F)F)C(F)(F)F,2,0.7007,,,2141,False,CCCC[n+]1ccn(C)c1.O=S(=O)([N-]S(=O)(=O)C(F)(F)F)C(F)(F)F,No changes
IlWGD,298.0,100.0,1150.59,Yoshimura et al. (2021),Liquid,0.1998999999999999,ethanol,,,CCCC[n+]1ccn(C)c1.O=S(=O)([N-]S(=O)(=O)C(F)(F)F)C(F)(F)F,1-butyl-3-methylimidazolium bis(trifluoromethylsulfonyl)imide,ABchwx,CCO,ethanol,AAIsrh,CCCC[n+]1ccn(C)c1,O=S(=O)([N-]S(=O)(=O)C(F)(F)F)C(F)(F)F,2,0.8001,,,2142,False,CCCC[n+]1ccn(C)c1.O=S(=O)([N-]S(=O)(=O)C(F)(F)F)C(F)(F)F,No changes
IlWGD,298.0,100.0,1021.69,Yoshimura et al. (2021),Liquid,0.0998999999999999,ethanol,,,CCCC[n+]1ccn(C)c1.O=S(=O)([N-]S(=O)(=O)C(F)(F)F)C(F)(F)F,1-butyl-3-methylimidazolium bis(trifluoromethylsulfonyl)imide,ABchwx,CCO,ethanol,AAIsrh,CCCC[n+]1ccn(C)c1,O=S(=O)([N-]S(=O)(=O)C(F)(F)F)C(F)(F)F,2,0.9001,,,2143,False,CCCC[n+]1ccn(C)c1.O=S(=O)([N-]S(=O)(=O)C(F)(F)F)C(F)(F)F,No changes
IlWGD,298.0,100.0,924.77,Yoshimura et al. (2021),Liquid,0.05,ethanol,,,CCCC[n+]1ccn(C)c1.O=S(=O)([N-]S(=O)(=O)C(F)(F)F)C(F)(F)F,1-butyl-3-methylimidazolium bis(trifluoromethylsulfonyl)imide,ABchwx,CCO,ethanol,AAIsrh,CCCC[n+]1ccn(C)c1,O=S(=O)([N-]S(=O)(=O)C(F)(F)F)C(F)(F)F,2,0.95,,,2144,False,CCCC[n+]1ccn(C)c1.O=S(=O)([N-]S(=O)(=O)C(F)(F)F)C(F)(F)F,No changes
IlWGD,298.0,100.0,785.24,Yoshimura et al. (2021),Liquid,0.0,ethanol,,,CCCC[n+]1ccn(C)c1.O=S(=O)([N-]S(=O)(=O)C(F)(F)F)C(F)(F)F,1-butyl-3-methylimidazolium bis(trifluoromethylsulfonyl)imide,ABchwx,CCO,ethanol,AAIsrh,CCCC[n+]1ccn(C)c1,O=S(=O)([N-]S(=O)(=O)C(F)(F)F)C(F)(F)F,2,1.0,,,2145,False,CCCC[n+]1ccn(C)c1.O=S(=O)([N-]S(=O)(=O)C(F)(F)F)C(F)(F)F,No changes
kKloD,288.15,100.0,793.91,Xing et al. (2017),Liquid,0.0,1-ethylpyridinium dicyanamide,,,CC[n+]1ccccc1.N#C[N-]C#N,1-ethylpyridinium dicyanamide,AAhaEl,CCO,ethanol,AAIsrh,CC[n+]1ccccc1,N#C[N-]C#N,2,,,,2146,False,CC[n+]1ccccc1.N#C[N-]C#N,No changes
kKloD,288.15,100.0,879.38,Xing et al. (2017),Liquid,0.0989,1-ethylpyridinium dicyanamide,,,CC[n+]1ccccc1.N#C[N-]C#N,1-ethylpyridinium dicyanamide,AAhaEl,CCO,ethanol,AAIsrh,CC[n+]1ccccc1,N#C[N-]C#N,2,,,,2147,False,CC[n+]1ccccc1.N#C[N-]C#N,No changes
kKloD,288.15,100.0,939.24,Xing et al. (2017),Liquid,0.2001,1-ethylpyridinium dicyanamide,,,CC[n+]1ccccc1.N#C[N-]C#N,1-ethylpyridinium dicyanamide,AAhaEl,CCO,ethanol,AAIsrh,CC[n+]1ccccc1,N#C[N-]C#N,2,,,,2148,False,CC[n+]1ccccc1.N#C[N-]C#N,No changes
kKloD,288.15,100.0,982.86,Xing et al. (2017),Liquid,0.3004,1-ethylpyridinium dicyanamide,,,CC[n+]1ccccc1.N#C[N-]C#N,1-ethylpyridinium dicyanamide,AAhaEl,CCO,ethanol,AAIsrh,CC[n+]1ccccc1,N#C[N-]C#N,2,,,,2149,False,CC[n+]1ccccc1.N#C[N-]C#N,No changes
kKloD,288.15,100.0,1016.7,Xing et al. (2017),Liquid,0.4006,1-ethylpyridinium dicyanamide,,,CC[n+]1ccccc1.N#C[N-]C#N,1-ethylpyridinium dicyanamide,AAhaEl,CCO,ethanol,AAIsrh,CC[n+]1ccccc1,N#C[N-]C#N,2,,,,2150,False,CC[n+]1ccccc1.N#C[N-]C#N,No changes
kKloD,288.15,100.0,1042.1,Xing et al. (2017),Liquid,0.4942,1-ethylpyridinium dicyanamide,,,CC[n+]1ccccc1.N#C[N-]C#N,1-ethylpyridinium dicyanamide,AAhaEl,CCO,ethanol,AAIsrh,CC[n+]1ccccc1,N#C[N-]C#N,2,,,,2151,False,CC[n+]1ccccc1.N#C[N-]C#N,No changes
kKloD,288.15,100.0,1065.3,Xing et al. (2017),Liquid,0.6006,1-ethylpyridinium dicyanamide,,,CC[n+]1ccccc1.N#C[N-]C#N,1-ethylpyridinium dicyanamide,AAhaEl,CCO,ethanol,AAIsrh,CC[n+]1ccccc1,N#C[N-]C#N,2,,,,2152,False,CC[n+]1ccccc1.N#C[N-]C#N,No changes
kKloD,288.15,100.0,1083.4,Xing et al. (2017),Liquid,0.6992,1-ethylpyridinium dicyanamide,,,CC[n+]1ccccc1.N#C[N-]C#N,1-ethylpyridinium dicyanamide,AAhaEl,CCO,ethanol,AAIsrh,CC[n+]1ccccc1,N#C[N-]C#N,2,,,,2153,False,CC[n+]1ccccc1.N#C[N-]C#N,No changes
kKloD,288.15,100.0,1098.6,Xing et al. (2017),Liquid,0.8026,1-ethylpyridinium dicyanamide,,,CC[n+]1ccccc1.N#C[N-]C#N,1-ethylpyridinium dicyanamide,AAhaEl,CCO,ethanol,AAIsrh,CC[n+]1ccccc1,N#C[N-]C#N,2,,,,2154,False,CC[n+]1ccccc1.N#C[N-]C#N,No changes
kKloD,288.15,100.0,1111.8,Xing et al. (2017),Liquid,0.8992,1-ethylpyridinium dicyanamide,,,CC[n+]1ccccc1.N#C[N-]C#N,1-ethylpyridinium dicyanamide,AAhaEl,CCO,ethanol,AAIsrh,CC[n+]1ccccc1,N#C[N-]C#N,2,,,,2155,False,CC[n+]1ccccc1.N#C[N-]C#N,No changes
kKloD,288.15,100.0,1124.7,Xing et al. (2017),Liquid,1.0,1-ethylpyridinium dicyanamide,,,CC[n+]1ccccc1.N#C[N-]C#N,1-ethylpyridinium dicyanamide,AAhaEl,CCO,ethanol,AAIsrh,CC[n+]1ccccc1,N#C[N-]C#N,2,,,,2156,False,CC[n+]1ccccc1.N#C[N-]C#N,No changes
kKloD,293.15,100.0,789.66,Xing et al. (2017),Liquid,0.0,1-ethylpyridinium dicyanamide,,,CC[n+]1ccccc1.N#C[N-]C#N,1-ethylpyridinium dicyanamide,AAhaEl,CCO,ethanol,AAIsrh,CC[n+]1ccccc1,N#C[N-]C#N,2,,,,2157,False,CC[n+]1ccccc1.N#C[N-]C#N,No changes
kKloD,293.15,100.0,875.5,Xing et al. (2017),Liquid,0.0989,1-ethylpyridinium dicyanamide,,,CC[n+]1ccccc1.N#C[N-]C#N,1-ethylpyridinium dicyanamide,AAhaEl,CCO,ethanol,AAIsrh,CC[n+]1ccccc1,N#C[N-]C#N,2,,,,2158,False,CC[n+]1ccccc1.N#C[N-]C#N,No changes
kKloD,293.15,100.0,935.59,Xing et al. (2017),Liquid,0.2001,1-ethylpyridinium dicyanamide,,,CC[n+]1ccccc1.N#C[N-]C#N,1-ethylpyridinium dicyanamide,AAhaEl,CCO,ethanol,AAIsrh,CC[n+]1ccccc1,N#C[N-]C#N,2,,,,2159,False,CC[n+]1ccccc1.N#C[N-]C#N,No changes
kKloD,293.15,100.0,979.34,Xing et al. (2017),Liquid,0.3004,1-ethylpyridinium dicyanamide,,,CC[n+]1ccccc1.N#C[N-]C#N,1-ethylpyridinium dicyanamide,AAhaEl,CCO,ethanol,AAIsrh,CC[n+]1ccccc1,N#C[N-]C#N,2,,,,2160,False,CC[n+]1ccccc1.N#C[N-]C#N,No changes
kKloD,293.15,100.0,1013.5,Xing et al. (2017),Liquid,0.4006,1-ethylpyridinium dicyanamide,,,CC[n+]1ccccc1.N#C[N-]C#N,1-ethylpyridinium dicyanamide,AAhaEl,CCO,ethanol,AAIsrh,CC[n+]1ccccc1,N#C[N-]C#N,2,,,,2161,False,CC[n+]1ccccc1.N#C[N-]C#N,No changes
kKloD,293.15,100.0,1038.9,Xing et al. (2017),Liquid,0.4942,1-ethylpyridinium dicyanamide,,,CC[n+]1ccccc1.N#C[N-]C#N,1-ethylpyridinium dicyanamide,AAhaEl,CCO,ethanol,AAIsrh,CC[n+]1ccccc1,N#C[N-]C#N,2,,,,2162,False,CC[n+]1ccccc1.N#C[N-]C#N,No changes
kKloD,293.15,100.0,1062.2,Xing et al. (2017),Liquid,0.6006,1-ethylpyridinium dicyanamide,,,CC[n+]1ccccc1.N#C[N-]C#N,1-ethylpyridinium dicyanamide,AAhaEl,CCO,ethanol,AAIsrh,CC[n+]1ccccc1,N#C[N-]C#N,2,,,,2163,False,CC[n+]1ccccc1.N#C[N-]C#N,No changes
kKloD,293.15,100.0,1080.2,Xing et al. (2017),Liquid,0.6992,1-ethylpyridinium dicyanamide,,,CC[n+]1ccccc1.N#C[N-]C#N,1-ethylpyridinium dicyanamide,AAhaEl,CCO,ethanol,AAIsrh,CC[n+]1ccccc1,N#C[N-]C#N,2,,,,2164,False,CC[n+]1ccccc1.N#C[N-]C#N,No changes
kKloD,293.15,100.0,1095.4,Xing et al. (2017),Liquid,0.8026,1-ethylpyridinium dicyanamide,,,CC[n+]1ccccc1.N#C[N-]C#N,1-ethylpyridinium dicyanamide,AAhaEl,CCO,ethanol,AAIsrh,CC[n+]1ccccc1,N#C[N-]C#N,2,,,,2165,False,CC[n+]1ccccc1.N#C[N-]C#N,No changes
kKloD,293.15,100.0,1108.6,Xing et al. (2017),Liquid,0.8992,1-ethylpyridinium dicyanamide,,,CC[n+]1ccccc1.N#C[N-]C#N,1-ethylpyridinium dicyanamide,AAhaEl,CCO,ethanol,AAIsrh,CC[n+]1ccccc1,N#C[N-]C#N,2,,,,2166,False,CC[n+]1ccccc1.N#C[N-]C#N,No changes
kKloD,293.15,100.0,1121.6,Xing et al. (2017),Liquid,1.0,1-ethylpyridinium dicyanamide,,,CC[n+]1ccccc1.N#C[N-]C#N,1-ethylpyridinium dicyanamide,AAhaEl,CCO,ethanol,AAIsrh,CC[n+]1ccccc1,N#C[N-]C#N,2,,,,2167,False,CC[n+]1ccccc1.N#C[N-]C#N,No changes
kKloD,298.15,100.0,785.73,Xing et al. (2017),Liquid,0.0,1-ethylpyridinium dicyanamide,,,CC[n+]1ccccc1.N#C[N-]C#N,1-ethylpyridinium dicyanamide,AAhaEl,CCO,ethanol,AAIsrh,CC[n+]1ccccc1,N#C[N-]C#N,2,,,,2168,False,CC[n+]1ccccc1.N#C[N-]C#N,No changes
kKloD,298.15,100.0,871.6,Xing et al. (2017),Liquid,0.0989,1-ethylpyridinium dicyanamide,,,CC[n+]1ccccc1.N#C[N-]C#N,1-ethylpyridinium dicyanamide,AAhaEl,CCO,ethanol,AAIsrh,CC[n+]1ccccc1,N#C[N-]C#N,2,,,,2169,False,CC[n+]1ccccc1.N#C[N-]C#N,No changes
kKloD,298.15,100.0,931.91,Xing et al. (2017),Liquid,0.2001,1-ethylpyridinium dicyanamide,,,CC[n+]1ccccc1.N#C[N-]C#N,1-ethylpyridinium dicyanamide,AAhaEl,CCO,ethanol,AAIsrh,CC[n+]1ccccc1,N#C[N-]C#N,2,,,,2170,False,CC[n+]1ccccc1.N#C[N-]C#N,No changes
kKloD,298.15,100.0,975.99,Xing et al. (2017),Liquid,0.3004,1-ethylpyridinium dicyanamide,,,CC[n+]1ccccc1.N#C[N-]C#N,1-ethylpyridinium dicyanamide,AAhaEl,CCO,ethanol,AAIsrh,CC[n+]1ccccc1,N#C[N-]C#N,2,,,,2171,False,CC[n+]1ccccc1.N#C[N-]C#N,No changes
kKloD,298.15,100.0,1010.4,Xing et al. (2017),Liquid,0.4006,1-ethylpyridinium dicyanamide,,,CC[n+]1ccccc1.N#C[N-]C#N,1-ethylpyridinium dicyanamide,AAhaEl,CCO,ethanol,AAIsrh,CC[n+]1ccccc1,N#C[N-]C#N,2,,,,2172,False,CC[n+]1ccccc1.N#C[N-]C#N,No changes
kKloD,298.15,100.0,1035.8,Xing et al. (2017),Liquid,0.4942,1-ethylpyridinium dicyanamide,,,CC[n+]1ccccc1.N#C[N-]C#N,1-ethylpyridinium dicyanamide,AAhaEl,CCO,ethanol,AAIsrh,CC[n+]1ccccc1,N#C[N-]C#N,2,,,,2173,False,CC[n+]1ccccc1.N#C[N-]C#N,No changes
kKloD,298.15,100.0,1059.2,Xing et al. (2017),Liquid,0.6006,1-ethylpyridinium dicyanamide,,,CC[n+]1ccccc1.N#C[N-]C#N,1-ethylpyridinium dicyanamide,AAhaEl,CCO,ethanol,AAIsrh,CC[n+]1ccccc1,N#C[N-]C#N,2,,,,2174,False,CC[n+]1ccccc1.N#C[N-]C#N,No changes
kKloD,298.15,100.0,1076.9,Xing et al. (2017),Liquid,0.6992,1-ethylpyridinium dicyanamide,,,CC[n+]1ccccc1.N#C[N-]C#N,1-ethylpyridinium dicyanamide,AAhaEl,CCO,ethanol,AAIsrh,CC[n+]1ccccc1,N#C[N-]C#N,2,,,,2175,False,CC[n+]1ccccc1.N#C[N-]C#N,No changes
kKloD,298.15,100.0,1092.3,Xing et al. (2017),Liquid,0.8026,1-ethylpyridinium dicyanamide,,,CC[n+]1ccccc1.N#C[N-]C#N,1-ethylpyridinium dicyanamide,AAhaEl,CCO,ethanol,AAIsrh,CC[n+]1ccccc1,N#C[N-]C#N,2,,,,2176,False,CC[n+]1ccccc1.N#C[N-]C#N,No changes
kKloD,298.15,100.0,1105.6,Xing et al. (2017),Liquid,0.8992,1-ethylpyridinium dicyanamide,,,CC[n+]1ccccc1.N#C[N-]C#N,1-ethylpyridinium dicyanamide,AAhaEl,CCO,ethanol,AAIsrh,CC[n+]1ccccc1,N#C[N-]C#N,2,,,,2177,False,CC[n+]1ccccc1.N#C[N-]C#N,No changes
kKloD,298.15,100.0,1118.5,Xing et al. (2017),Liquid,1.0,1-ethylpyridinium dicyanamide,,,CC[n+]1ccccc1.N#C[N-]C#N,1-ethylpyridinium dicyanamide,AAhaEl,CCO,ethanol,AAIsrh,CC[n+]1ccccc1,N#C[N-]C#N,2,,,,2178,False,CC[n+]1ccccc1.N#C[N-]C#N,No changes
kKloD,303.15,100.0,781.05,Xing et al. (2017),Liquid,0.0,1-ethylpyridinium dicyanamide,,,CC[n+]1ccccc1.N#C[N-]C#N,1-ethylpyridinium dicyanamide,AAhaEl,CCO,ethanol,AAIsrh,CC[n+]1ccccc1,N#C[N-]C#N,2,,,,2179,False,CC[n+]1ccccc1.N#C[N-]C#N,No changes
kKloD,303.15,100.0,867.68,Xing et al. (2017),Liquid,0.0989,1-ethylpyridinium dicyanamide,,,CC[n+]1ccccc1.N#C[N-]C#N,1-ethylpyridinium dicyanamide,AAhaEl,CCO,ethanol,AAIsrh,CC[n+]1ccccc1,N#C[N-]C#N,2,,,,2180,False,CC[n+]1ccccc1.N#C[N-]C#N,No changes
kKloD,303.15,100.0,928.24,Xing et al. (2017),Liquid,0.2001,1-ethylpyridinium dicyanamide,,,CC[n+]1ccccc1.N#C[N-]C#N,1-ethylpyridinium dicyanamide,AAhaEl,CCO,ethanol,AAIsrh,CC[n+]1ccccc1,N#C[N-]C#N,2,,,,2181,False,CC[n+]1ccccc1.N#C[N-]C#N,No changes
kKloD,303.15,100.0,972.39,Xing et al. (2017),Liquid,0.3004,1-ethylpyridinium dicyanamide,,,CC[n+]1ccccc1.N#C[N-]C#N,1-ethylpyridinium dicyanamide,AAhaEl,CCO,ethanol,AAIsrh,CC[n+]1ccccc1,N#C[N-]C#N,2,,,,2182,False,CC[n+]1ccccc1.N#C[N-]C#N,No changes
kKloD,303.15,100.0,1006.9,Xing et al. (2017),Liquid,0.4006,1-ethylpyridinium dicyanamide,,,CC[n+]1ccccc1.N#C[N-]C#N,1-ethylpyridinium dicyanamide,AAhaEl,CCO,ethanol,AAIsrh,CC[n+]1ccccc1,N#C[N-]C#N,2,,,,2183,False,CC[n+]1ccccc1.N#C[N-]C#N,No changes
kKloD,303.15,100.0,1032.5,Xing et al. (2017),Liquid,0.4942,1-ethylpyridinium dicyanamide,,,CC[n+]1ccccc1.N#C[N-]C#N,1-ethylpyridinium dicyanamide,AAhaEl,CCO,ethanol,AAIsrh,CC[n+]1ccccc1,N#C[N-]C#N,2,,,,2184,False,CC[n+]1ccccc1.N#C[N-]C#N,No changes
kKloD,303.15,100.0,1055.8,Xing et al. (2017),Liquid,0.6006,1-ethylpyridinium dicyanamide,,,CC[n+]1ccccc1.N#C[N-]C#N,1-ethylpyridinium dicyanamide,AAhaEl,CCO,ethanol,AAIsrh,CC[n+]1ccccc1,N#C[N-]C#N,2,,,,2185,False,CC[n+]1ccccc1.N#C[N-]C#N,No changes
kKloD,303.15,100.0,1073.8,Xing et al. (2017),Liquid,0.6992,1-ethylpyridinium dicyanamide,,,CC[n+]1ccccc1.N#C[N-]C#N,1-ethylpyridinium dicyanamide,AAhaEl,CCO,ethanol,AAIsrh,CC[n+]1ccccc1,N#C[N-]C#N,2,,,,2186,False,CC[n+]1ccccc1.N#C[N-]C#N,No changes
kKloD,303.15,100.0,1089.1,Xing et al. (2017),Liquid,0.8026,1-ethylpyridinium dicyanamide,,,CC[n+]1ccccc1.N#C[N-]C#N,1-ethylpyridinium dicyanamide,AAhaEl,CCO,ethanol,AAIsrh,CC[n+]1ccccc1,N#C[N-]C#N,2,,,,2187,False,CC[n+]1ccccc1.N#C[N-]C#N,No changes
kKloD,303.15,100.0,1102.5,Xing et al. (2017),Liquid,0.8992,1-ethylpyridinium dicyanamide,,,CC[n+]1ccccc1.N#C[N-]C#N,1-ethylpyridinium dicyanamide,AAhaEl,CCO,ethanol,AAIsrh,CC[n+]1ccccc1,N#C[N-]C#N,2,,,,2188,False,CC[n+]1ccccc1.N#C[N-]C#N,No changes
kKloD,303.15,100.0,1115.3,Xing et al. (2017),Liquid,1.0,1-ethylpyridinium dicyanamide,,,CC[n+]1ccccc1.N#C[N-]C#N,1-ethylpyridinium dicyanamide,AAhaEl,CCO,ethanol,AAIsrh,CC[n+]1ccccc1,N#C[N-]C#N,2,,,,2189,False,CC[n+]1ccccc1.N#C[N-]C#N,No changes
kKloD,308.15,100.0,776.7,Xing et al. (2017),Liquid,0.0,1-ethylpyridinium dicyanamide,,,CC[n+]1ccccc1.N#C[N-]C#N,1-ethylpyridinium dicyanamide,AAhaEl,CCO,ethanol,AAIsrh,CC[n+]1ccccc1,N#C[N-]C#N,2,,,,2190,False,CC[n+]1ccccc1.N#C[N-]C#N,No changes
kKloD,308.15,100.0,863.76,Xing et al. (2017),Liquid,0.0989,1-ethylpyridinium dicyanamide,,,CC[n+]1ccccc1.N#C[N-]C#N,1-ethylpyridinium dicyanamide,AAhaEl,CCO,ethanol,AAIsrh,CC[n+]1ccccc1,N#C[N-]C#N,2,,,,2191,False,CC[n+]1ccccc1.N#C[N-]C#N,No changes
kKloD,308.15,100.0,924.58,Xing et al. (2017),Liquid,0.2001,1-ethylpyridinium dicyanamide,,,CC[n+]1ccccc1.N#C[N-]C#N,1-ethylpyridinium dicyanamide,AAhaEl,CCO,ethanol,AAIsrh,CC[n+]1ccccc1,N#C[N-]C#N,2,,,,2192,False,CC[n+]1ccccc1.N#C[N-]C#N,No changes
kKloD,308.15,100.0,969.14,Xing et al. (2017),Liquid,0.3004,1-ethylpyridinium dicyanamide,,,CC[n+]1ccccc1.N#C[N-]C#N,1-ethylpyridinium dicyanamide,AAhaEl,CCO,ethanol,AAIsrh,CC[n+]1ccccc1,N#C[N-]C#N,2,,,,2193,False,CC[n+]1ccccc1.N#C[N-]C#N,No changes
kKloD,308.15,100.0,1003.8,Xing et al. (2017),Liquid,0.4006,1-ethylpyridinium dicyanamide,,,CC[n+]1ccccc1.N#C[N-]C#N,1-ethylpyridinium dicyanamide,AAhaEl,CCO,ethanol,AAIsrh,CC[n+]1ccccc1,N#C[N-]C#N,2,,,,2194,False,CC[n+]1ccccc1.N#C[N-]C#N,No changes
kKloD,308.15,100.0,1029.3,Xing et al. (2017),Liquid,0.4942,1-ethylpyridinium dicyanamide,,,CC[n+]1ccccc1.N#C[N-]C#N,1-ethylpyridinium dicyanamide,AAhaEl,CCO,ethanol,AAIsrh,CC[n+]1ccccc1,N#C[N-]C#N,2,,,,2195,False,CC[n+]1ccccc1.N#C[N-]C#N,No changes
kKloD,308.15,100.0,1052.7,Xing et al. (2017),Liquid,0.6006,1-ethylpyridinium dicyanamide,,,CC[n+]1ccccc1.N#C[N-]C#N,1-ethylpyridinium dicyanamide,AAhaEl,CCO,ethanol,AAIsrh,CC[n+]1ccccc1,N#C[N-]C#N,2,,,,2196,False,CC[n+]1ccccc1.N#C[N-]C#N,No changes
kKloD,308.15,100.0,1070.6,Xing et al. (2017),Liquid,0.6992,1-ethylpyridinium dicyanamide,,,CC[n+]1ccccc1.N#C[N-]C#N,1-ethylpyridinium dicyanamide,AAhaEl,CCO,ethanol,AAIsrh,CC[n+]1ccccc1,N#C[N-]C#N,2,,,,2197,False,CC[n+]1ccccc1.N#C[N-]C#N,No changes
kKloD,308.15,100.0,1086.0,Xing et al. (2017),Liquid,0.8026,1-ethylpyridinium dicyanamide,,,CC[n+]1ccccc1.N#C[N-]C#N,1-ethylpyridinium dicyanamide,AAhaEl,CCO,ethanol,AAIsrh,CC[n+]1ccccc1,N#C[N-]C#N,2,,,,2198,False,CC[n+]1ccccc1.N#C[N-]C#N,No changes
kKloD,308.15,100.0,1099.3,Xing et al. (2017),Liquid,0.8992,1-ethylpyridinium dicyanamide,,,CC[n+]1ccccc1.N#C[N-]C#N,1-ethylpyridinium dicyanamide,AAhaEl,CCO,ethanol,AAIsrh,CC[n+]1ccccc1,N#C[N-]C#N,2,,,,2199,False,CC[n+]1ccccc1.N#C[N-]C#N,No changes
kKloD,308.15,100.0,1112.2,Xing et al. (2017),Liquid,1.0,1-ethylpyridinium dicyanamide,,,CC[n+]1ccccc1.N#C[N-]C#N,1-ethylpyridinium dicyanamide,AAhaEl,CCO,ethanol,AAIsrh,CC[n+]1ccccc1,N#C[N-]C#N,2,,,,2200,False,CC[n+]1ccccc1.N#C[N-]C#N,No changes
kKloD,313.15,100.0,772.31,Xing et al. (2017),Liquid,0.0,1-ethylpyridinium dicyanamide,,,CC[n+]1ccccc1.N#C[N-]C#N,1-ethylpyridinium dicyanamide,AAhaEl,CCO,ethanol,AAIsrh,CC[n+]1ccccc1,N#C[N-]C#N,2,,,,2201,False,CC[n+]1ccccc1.N#C[N-]C#N,No changes
kKloD,313.15,100.0,859.83,Xing et al. (2017),Liquid,0.0989,1-ethylpyridinium dicyanamide,,,CC[n+]1ccccc1.N#C[N-]C#N,1-ethylpyridinium dicyanamide,AAhaEl,CCO,ethanol,AAIsrh,CC[n+]1ccccc1,N#C[N-]C#N,2,,,,2202,False,CC[n+]1ccccc1.N#C[N-]C#N,No changes
kKloD,313.15,100.0,920.92,Xing et al. (2017),Liquid,0.2001,1-ethylpyridinium dicyanamide,,,CC[n+]1ccccc1.N#C[N-]C#N,1-ethylpyridinium dicyanamide,AAhaEl,CCO,ethanol,AAIsrh,CC[n+]1ccccc1,N#C[N-]C#N,2,,,,2203,False,CC[n+]1ccccc1.N#C[N-]C#N,No changes
kKloD,313.15,100.0,965.98,Xing et al. (2017),Liquid,0.3004,1-ethylpyridinium dicyanamide,,,CC[n+]1ccccc1.N#C[N-]C#N,1-ethylpyridinium dicyanamide,AAhaEl,CCO,ethanol,AAIsrh,CC[n+]1ccccc1,N#C[N-]C#N,2,,,,2204,False,CC[n+]1ccccc1.N#C[N-]C#N,No changes
kKloD,313.15,100.0,1000.6,Xing et al. (2017),Liquid,0.4006,1-ethylpyridinium dicyanamide,,,CC[n+]1ccccc1.N#C[N-]C#N,1-ethylpyridinium dicyanamide,AAhaEl,CCO,ethanol,AAIsrh,CC[n+]1ccccc1,N#C[N-]C#N,2,,,,2205,False,CC[n+]1ccccc1.N#C[N-]C#N,No changes
kKloD,313.15,100.0,1026.2,Xing et al. (2017),Liquid,0.4942,1-ethylpyridinium dicyanamide,,,CC[n+]1ccccc1.N#C[N-]C#N,1-ethylpyridinium dicyanamide,AAhaEl,CCO,ethanol,AAIsrh,CC[n+]1ccccc1,N#C[N-]C#N,2,,,,2206,False,CC[n+]1ccccc1.N#C[N-]C#N,No changes
kKloD,313.15,100.0,1049.5,Xing et al. (2017),Liquid,0.6006,1-ethylpyridinium dicyanamide,,,CC[n+]1ccccc1.N#C[N-]C#N,1-ethylpyridinium dicyanamide,AAhaEl,CCO,ethanol,AAIsrh,CC[n+]1ccccc1,N#C[N-]C#N,2,,,,2207,False,CC[n+]1ccccc1.N#C[N-]C#N,No changes
kKloD,313.15,100.0,1067.6,Xing et al. (2017),Liquid,0.6992,1-ethylpyridinium dicyanamide,,,CC[n+]1ccccc1.N#C[N-]C#N,1-ethylpyridinium dicyanamide,AAhaEl,CCO,ethanol,AAIsrh,CC[n+]1ccccc1,N#C[N-]C#N,2,,,,2208,False,CC[n+]1ccccc1.N#C[N-]C#N,No changes
kKloD,313.15,100.0,1082.7,Xing et al. (2017),Liquid,0.8026,1-ethylpyridinium dicyanamide,,,CC[n+]1ccccc1.N#C[N-]C#N,1-ethylpyridinium dicyanamide,AAhaEl,CCO,ethanol,AAIsrh,CC[n+]1ccccc1,N#C[N-]C#N,2,,,,2209,False,CC[n+]1ccccc1.N#C[N-]C#N,No changes
kKloD,313.15,100.0,1096.1,Xing et al. (2017),Liquid,0.8992,1-ethylpyridinium dicyanamide,,,CC[n+]1ccccc1.N#C[N-]C#N,1-ethylpyridinium dicyanamide,AAhaEl,CCO,ethanol,AAIsrh,CC[n+]1ccccc1,N#C[N-]C#N,2,,,,2210,False,CC[n+]1ccccc1.N#C[N-]C#N,No changes
kKloD,313.15,100.0,1109.0,Xing et al. (2017),Liquid,1.0,1-ethylpyridinium dicyanamide,,,CC[n+]1ccccc1.N#C[N-]C#N,1-ethylpyridinium dicyanamide,AAhaEl,CCO,ethanol,AAIsrh,CC[n+]1ccccc1,N#C[N-]C#N,2,,,,2211,False,CC[n+]1ccccc1.N#C[N-]C#N,No changes
kKloD,318.15,100.0,767.88,Xing et al. (2017),Liquid,0.0,1-ethylpyridinium dicyanamide,,,CC[n+]1ccccc1.N#C[N-]C#N,1-ethylpyridinium dicyanamide,AAhaEl,CCO,ethanol,AAIsrh,CC[n+]1ccccc1,N#C[N-]C#N,2,,,,2212,False,CC[n+]1ccccc1.N#C[N-]C#N,No changes
kKloD,318.15,100.0,855.9,Xing et al. (2017),Liquid,0.0989,1-ethylpyridinium dicyanamide,,,CC[n+]1ccccc1.N#C[N-]C#N,1-ethylpyridinium dicyanamide,AAhaEl,CCO,ethanol,AAIsrh,CC[n+]1ccccc1,N#C[N-]C#N,2,,,,2213,False,CC[n+]1ccccc1.N#C[N-]C#N,No changes
kKloD,318.15,100.0,917.26,Xing et al. (2017),Liquid,0.2001,1-ethylpyridinium dicyanamide,,,CC[n+]1ccccc1.N#C[N-]C#N,1-ethylpyridinium dicyanamide,AAhaEl,CCO,ethanol,AAIsrh,CC[n+]1ccccc1,N#C[N-]C#N,2,,,,2214,False,CC[n+]1ccccc1.N#C[N-]C#N,No changes
kKloD,318.15,100.0,962.81,Xing et al. (2017),Liquid,0.3004,1-ethylpyridinium dicyanamide,,,CC[n+]1ccccc1.N#C[N-]C#N,1-ethylpyridinium dicyanamide,AAhaEl,CCO,ethanol,AAIsrh,CC[n+]1ccccc1,N#C[N-]C#N,2,,,,2215,False,CC[n+]1ccccc1.N#C[N-]C#N,No changes
kKloD,318.15,100.0,997.6,Xing et al. (2017),Liquid,0.4006,1-ethylpyridinium dicyanamide,,,CC[n+]1ccccc1.N#C[N-]C#N,1-ethylpyridinium dicyanamide,AAhaEl,CCO,ethanol,AAIsrh,CC[n+]1ccccc1,N#C[N-]C#N,2,,,,2216,False,CC[n+]1ccccc1.N#C[N-]C#N,No changes