setid,Temperature (K),Pressure (kPa),Density (kg/m3),reference,phases,Mole fraction,Mole fraction of compound name,Weight fraction,Weight fraction of compound name,IL_SMILES,IL_name,IL_ID,Solvent_SMILES,Solvent_name,Solvent_ID,IL_cation_SMILES,IL_anion_SMILES,IL_component_number,Mole fraction of solvent,IL_MW,Solvent_MW,Record_ID,Contains_Metal,Standardized_IL_SMILES,Changes
HjbMY,298.15,100.0,1145.8,Warminska and Cichowska-Kopczynska (2022),Liquid,0.531,propan-2-ol,,,CCCCCC[n+]1ccn(C)c1.O=S(=O)([O-])C(F)(F)F,1-hexyl-3-methylimidazolium trifluoromethanesulfonate,ABIrWy,CC(C)O,propan-2-ol,AALcwx,CCCCCC[n+]1ccn(C)c1,O=S(=O)([O-])C(F)(F)F,2,0.469,,,1500,False,CCCCCC[n+]1ccn(C)c1.O=S(=O)([O-])C(F)(F)F,No changes
HjbMY,298.15,100.0,1110.7,Warminska and Cichowska-Kopczynska (2022),Liquid,0.4272,propan-2-ol,,,CCCCCC[n+]1ccn(C)c1.O=S(=O)([O-])C(F)(F)F,1-hexyl-3-methylimidazolium trifluoromethanesulfonate,ABIrWy,CC(C)O,propan-2-ol,AALcwx,CCCCCC[n+]1ccn(C)c1,O=S(=O)([O-])C(F)(F)F,2,0.5728,,,1501,False,CCCCCC[n+]1ccn(C)c1.O=S(=O)([O-])C(F)(F)F,No changes
HjbMY,298.15,100.0,1075.5,Warminska and Cichowska-Kopczynska (2022),Liquid,0.3436,propan-2-ol,,,CCCCCC[n+]1ccn(C)c1.O=S(=O)([O-])C(F)(F)F,1-hexyl-3-methylimidazolium trifluoromethanesulfonate,ABIrWy,CC(C)O,propan-2-ol,AALcwx,CCCCCC[n+]1ccn(C)c1,O=S(=O)([O-])C(F)(F)F,2,0.6564,,,1502,False,CCCCCC[n+]1ccn(C)c1.O=S(=O)([O-])C(F)(F)F,No changes
HjbMY,298.15,100.0,1021.1,Warminska and Cichowska-Kopczynska (2022),Liquid,0.2426,propan-2-ol,,,CCCCCC[n+]1ccn(C)c1.O=S(=O)([O-])C(F)(F)F,1-hexyl-3-methylimidazolium trifluoromethanesulfonate,ABIrWy,CC(C)O,propan-2-ol,AALcwx,CCCCCC[n+]1ccn(C)c1,O=S(=O)([O-])C(F)(F)F,2,0.7574,,,1503,False,CCCCCC[n+]1ccn(C)c1.O=S(=O)([O-])C(F)(F)F,No changes
HjbMY,298.15,100.0,960.6,Warminska and Cichowska-Kopczynska (2022),Liquid,0.1578,propan-2-ol,,,CCCCCC[n+]1ccn(C)c1.O=S(=O)([O-])C(F)(F)F,1-hexyl-3-methylimidazolium trifluoromethanesulfonate,ABIrWy,CC(C)O,propan-2-ol,AALcwx,CCCCCC[n+]1ccn(C)c1,O=S(=O)([O-])C(F)(F)F,2,0.8422,,,1504,False,CCCCCC[n+]1ccn(C)c1.O=S(=O)([O-])C(F)(F)F,No changes
HjbMY,298.15,100.0,883.1,Warminska and Cichowska-Kopczynska (2022),Liquid,0.0768999999999999,propan-2-ol,,,CCCCCC[n+]1ccn(C)c1.O=S(=O)([O-])C(F)(F)F,1-hexyl-3-methylimidazolium trifluoromethanesulfonate,ABIrWy,CC(C)O,propan-2-ol,AALcwx,CCCCCC[n+]1ccn(C)c1,O=S(=O)([O-])C(F)(F)F,2,0.9231,,,1505,False,CCCCCC[n+]1ccn(C)c1.O=S(=O)([O-])C(F)(F)F,No changes
HjbMY,298.15,100.0,781.1,Warminska and Cichowska-Kopczynska (2022),Liquid,0.0,propan-2-ol,,,CCCCCC[n+]1ccn(C)c1.O=S(=O)([O-])C(F)(F)F,1-hexyl-3-methylimidazolium trifluoromethanesulfonate,ABIrWy,CC(C)O,propan-2-ol,AALcwx,CCCCCC[n+]1ccn(C)c1,O=S(=O)([O-])C(F)(F)F,2,1.0,,,1506,False,CCCCCC[n+]1ccn(C)c1.O=S(=O)([O-])C(F)(F)F,No changes
HjbMY,303.15,100.0,1235.7,Warminska and Cichowska-Kopczynska (2022),Liquid,1.0,propan-2-ol,,,CCCCCC[n+]1ccn(C)c1.O=S(=O)([O-])C(F)(F)F,1-hexyl-3-methylimidazolium trifluoromethanesulfonate,ABIrWy,CC(C)O,propan-2-ol,AALcwx,CCCCCC[n+]1ccn(C)c1,O=S(=O)([O-])C(F)(F)F,2,0.0,,,1507,False,CCCCCC[n+]1ccn(C)c1.O=S(=O)([O-])C(F)(F)F,No changes
HjbMY,303.15,100.0,1217.0,Warminska and Cichowska-Kopczynska (2022),Liquid,0.8718,propan-2-ol,,,CCCCCC[n+]1ccn(C)c1.O=S(=O)([O-])C(F)(F)F,1-hexyl-3-methylimidazolium trifluoromethanesulfonate,ABIrWy,CC(C)O,propan-2-ol,AALcwx,CCCCCC[n+]1ccn(C)c1,O=S(=O)([O-])C(F)(F)F,2,0.1282,,,1508,False,CCCCCC[n+]1ccn(C)c1.O=S(=O)([O-])C(F)(F)F,No changes
HjbMY,303.15,100.0,1196.3,Warminska and Cichowska-Kopczynska (2022),Liquid,0.7545999999999999,propan-2-ol,,,CCCCCC[n+]1ccn(C)c1.O=S(=O)([O-])C(F)(F)F,1-hexyl-3-methylimidazolium trifluoromethanesulfonate,ABIrWy,CC(C)O,propan-2-ol,AALcwx,CCCCCC[n+]1ccn(C)c1,O=S(=O)([O-])C(F)(F)F,2,0.2454,,,1509,False,CCCCCC[n+]1ccn(C)c1.O=S(=O)([O-])C(F)(F)F,No changes
HjbMY,303.15,100.0,1173.6,Warminska and Cichowska-Kopczynska (2022),Liquid,0.6494,propan-2-ol,,,CCCCCC[n+]1ccn(C)c1.O=S(=O)([O-])C(F)(F)F,1-hexyl-3-methylimidazolium trifluoromethanesulfonate,ABIrWy,CC(C)O,propan-2-ol,AALcwx,CCCCCC[n+]1ccn(C)c1,O=S(=O)([O-])C(F)(F)F,2,0.3506,,,1510,False,CCCCCC[n+]1ccn(C)c1.O=S(=O)([O-])C(F)(F)F,No changes
HjbMY,303.15,100.0,1141.8,Warminska and Cichowska-Kopczynska (2022),Liquid,0.531,propan-2-ol,,,CCCCCC[n+]1ccn(C)c1.O=S(=O)([O-])C(F)(F)F,1-hexyl-3-methylimidazolium trifluoromethanesulfonate,ABIrWy,CC(C)O,propan-2-ol,AALcwx,CCCCCC[n+]1ccn(C)c1,O=S(=O)([O-])C(F)(F)F,2,0.469,,,1511,False,CCCCCC[n+]1ccn(C)c1.O=S(=O)([O-])C(F)(F)F,No changes
HjbMY,303.15,100.0,1106.7,Warminska and Cichowska-Kopczynska (2022),Liquid,0.4272,propan-2-ol,,,CCCCCC[n+]1ccn(C)c1.O=S(=O)([O-])C(F)(F)F,1-hexyl-3-methylimidazolium trifluoromethanesulfonate,ABIrWy,CC(C)O,propan-2-ol,AALcwx,CCCCCC[n+]1ccn(C)c1,O=S(=O)([O-])C(F)(F)F,2,0.5728,,,1512,False,CCCCCC[n+]1ccn(C)c1.O=S(=O)([O-])C(F)(F)F,No changes
HjbMY,303.15,100.0,1071.6,Warminska and Cichowska-Kopczynska (2022),Liquid,0.3436,propan-2-ol,,,CCCCCC[n+]1ccn(C)c1.O=S(=O)([O-])C(F)(F)F,1-hexyl-3-methylimidazolium trifluoromethanesulfonate,ABIrWy,CC(C)O,propan-2-ol,AALcwx,CCCCCC[n+]1ccn(C)c1,O=S(=O)([O-])C(F)(F)F,2,0.6564,,,1513,False,CCCCCC[n+]1ccn(C)c1.O=S(=O)([O-])C(F)(F)F,No changes
HjbMY,303.15,100.0,1017.1,Warminska and Cichowska-Kopczynska (2022),Liquid,0.2426,propan-2-ol,,,CCCCCC[n+]1ccn(C)c1.O=S(=O)([O-])C(F)(F)F,1-hexyl-3-methylimidazolium trifluoromethanesulfonate,ABIrWy,CC(C)O,propan-2-ol,AALcwx,CCCCCC[n+]1ccn(C)c1,O=S(=O)([O-])C(F)(F)F,2,0.7574,,,1514,False,CCCCCC[n+]1ccn(C)c1.O=S(=O)([O-])C(F)(F)F,No changes
HjbMY,303.15,100.0,956.7,Warminska and Cichowska-Kopczynska (2022),Liquid,0.1578,propan-2-ol,,,CCCCCC[n+]1ccn(C)c1.O=S(=O)([O-])C(F)(F)F,1-hexyl-3-methylimidazolium trifluoromethanesulfonate,ABIrWy,CC(C)O,propan-2-ol,AALcwx,CCCCCC[n+]1ccn(C)c1,O=S(=O)([O-])C(F)(F)F,2,0.8422,,,1515,False,CCCCCC[n+]1ccn(C)c1.O=S(=O)([O-])C(F)(F)F,No changes
HjbMY,303.15,100.0,879.0,Warminska and Cichowska-Kopczynska (2022),Liquid,0.0768999999999999,propan-2-ol,,,CCCCCC[n+]1ccn(C)c1.O=S(=O)([O-])C(F)(F)F,1-hexyl-3-methylimidazolium trifluoromethanesulfonate,ABIrWy,CC(C)O,propan-2-ol,AALcwx,CCCCCC[n+]1ccn(C)c1,O=S(=O)([O-])C(F)(F)F,2,0.9231,,,1516,False,CCCCCC[n+]1ccn(C)c1.O=S(=O)([O-])C(F)(F)F,No changes
HjbMY,303.15,100.0,776.8,Warminska and Cichowska-Kopczynska (2022),Liquid,0.0,propan-2-ol,,,CCCCCC[n+]1ccn(C)c1.O=S(=O)([O-])C(F)(F)F,1-hexyl-3-methylimidazolium trifluoromethanesulfonate,ABIrWy,CC(C)O,propan-2-ol,AALcwx,CCCCCC[n+]1ccn(C)c1,O=S(=O)([O-])C(F)(F)F,2,1.0,,,1517,False,CCCCCC[n+]1ccn(C)c1.O=S(=O)([O-])C(F)(F)F,No changes
HjbMY,308.15,100.0,1231.9,Warminska and Cichowska-Kopczynska (2022),Liquid,1.0,propan-2-ol,,,CCCCCC[n+]1ccn(C)c1.O=S(=O)([O-])C(F)(F)F,1-hexyl-3-methylimidazolium trifluoromethanesulfonate,ABIrWy,CC(C)O,propan-2-ol,AALcwx,CCCCCC[n+]1ccn(C)c1,O=S(=O)([O-])C(F)(F)F,2,0.0,,,1518,False,CCCCCC[n+]1ccn(C)c1.O=S(=O)([O-])C(F)(F)F,No changes
HjbMY,308.15,100.0,1213.2,Warminska and Cichowska-Kopczynska (2022),Liquid,0.8718,propan-2-ol,,,CCCCCC[n+]1ccn(C)c1.O=S(=O)([O-])C(F)(F)F,1-hexyl-3-methylimidazolium trifluoromethanesulfonate,ABIrWy,CC(C)O,propan-2-ol,AALcwx,CCCCCC[n+]1ccn(C)c1,O=S(=O)([O-])C(F)(F)F,2,0.1282,,,1519,False,CCCCCC[n+]1ccn(C)c1.O=S(=O)([O-])C(F)(F)F,No changes
HjbMY,308.15,100.0,1192.5,Warminska and Cichowska-Kopczynska (2022),Liquid,0.7545999999999999,propan-2-ol,,,CCCCCC[n+]1ccn(C)c1.O=S(=O)([O-])C(F)(F)F,1-hexyl-3-methylimidazolium trifluoromethanesulfonate,ABIrWy,CC(C)O,propan-2-ol,AALcwx,CCCCCC[n+]1ccn(C)c1,O=S(=O)([O-])C(F)(F)F,2,0.2454,,,1520,False,CCCCCC[n+]1ccn(C)c1.O=S(=O)([O-])C(F)(F)F,No changes
HjbMY,308.15,100.0,1169.7,Warminska and Cichowska-Kopczynska (2022),Liquid,0.6494,propan-2-ol,,,CCCCCC[n+]1ccn(C)c1.O=S(=O)([O-])C(F)(F)F,1-hexyl-3-methylimidazolium trifluoromethanesulfonate,ABIrWy,CC(C)O,propan-2-ol,AALcwx,CCCCCC[n+]1ccn(C)c1,O=S(=O)([O-])C(F)(F)F,2,0.3506,,,1521,False,CCCCCC[n+]1ccn(C)c1.O=S(=O)([O-])C(F)(F)F,No changes
HjbMY,308.15,100.0,1137.9,Warminska and Cichowska-Kopczynska (2022),Liquid,0.531,propan-2-ol,,,CCCCCC[n+]1ccn(C)c1.O=S(=O)([O-])C(F)(F)F,1-hexyl-3-methylimidazolium trifluoromethanesulfonate,ABIrWy,CC(C)O,propan-2-ol,AALcwx,CCCCCC[n+]1ccn(C)c1,O=S(=O)([O-])C(F)(F)F,2,0.469,,,1522,False,CCCCCC[n+]1ccn(C)c1.O=S(=O)([O-])C(F)(F)F,No changes
HjbMY,308.15,100.0,1102.8,Warminska and Cichowska-Kopczynska (2022),Liquid,0.4272,propan-2-ol,,,CCCCCC[n+]1ccn(C)c1.O=S(=O)([O-])C(F)(F)F,1-hexyl-3-methylimidazolium trifluoromethanesulfonate,ABIrWy,CC(C)O,propan-2-ol,AALcwx,CCCCCC[n+]1ccn(C)c1,O=S(=O)([O-])C(F)(F)F,2,0.5728,,,1523,False,CCCCCC[n+]1ccn(C)c1.O=S(=O)([O-])C(F)(F)F,No changes
HjbMY,308.15,100.0,1067.5,Warminska and Cichowska-Kopczynska (2022),Liquid,0.3436,propan-2-ol,,,CCCCCC[n+]1ccn(C)c1.O=S(=O)([O-])C(F)(F)F,1-hexyl-3-methylimidazolium trifluoromethanesulfonate,ABIrWy,CC(C)O,propan-2-ol,AALcwx,CCCCCC[n+]1ccn(C)c1,O=S(=O)([O-])C(F)(F)F,2,0.6564,,,1524,False,CCCCCC[n+]1ccn(C)c1.O=S(=O)([O-])C(F)(F)F,No changes
HjbMY,308.15,100.0,1013.0,Warminska and Cichowska-Kopczynska (2022),Liquid,0.2426,propan-2-ol,,,CCCCCC[n+]1ccn(C)c1.O=S(=O)([O-])C(F)(F)F,1-hexyl-3-methylimidazolium trifluoromethanesulfonate,ABIrWy,CC(C)O,propan-2-ol,AALcwx,CCCCCC[n+]1ccn(C)c1,O=S(=O)([O-])C(F)(F)F,2,0.7574,,,1525,False,CCCCCC[n+]1ccn(C)c1.O=S(=O)([O-])C(F)(F)F,No changes
HjbMY,308.15,100.0,952.6,Warminska and Cichowska-Kopczynska (2022),Liquid,0.1578,propan-2-ol,,,CCCCCC[n+]1ccn(C)c1.O=S(=O)([O-])C(F)(F)F,1-hexyl-3-methylimidazolium trifluoromethanesulfonate,ABIrWy,CC(C)O,propan-2-ol,AALcwx,CCCCCC[n+]1ccn(C)c1,O=S(=O)([O-])C(F)(F)F,2,0.8422,,,1526,False,CCCCCC[n+]1ccn(C)c1.O=S(=O)([O-])C(F)(F)F,No changes
HjbMY,308.15,100.0,874.9,Warminska and Cichowska-Kopczynska (2022),Liquid,0.0768999999999999,propan-2-ol,,,CCCCCC[n+]1ccn(C)c1.O=S(=O)([O-])C(F)(F)F,1-hexyl-3-methylimidazolium trifluoromethanesulfonate,ABIrWy,CC(C)O,propan-2-ol,AALcwx,CCCCCC[n+]1ccn(C)c1,O=S(=O)([O-])C(F)(F)F,2,0.9231,,,1527,False,CCCCCC[n+]1ccn(C)c1.O=S(=O)([O-])C(F)(F)F,No changes
HjbMY,308.15,100.0,772.5,Warminska and Cichowska-Kopczynska (2022),Liquid,0.0,propan-2-ol,,,CCCCCC[n+]1ccn(C)c1.O=S(=O)([O-])C(F)(F)F,1-hexyl-3-methylimidazolium trifluoromethanesulfonate,ABIrWy,CC(C)O,propan-2-ol,AALcwx,CCCCCC[n+]1ccn(C)c1,O=S(=O)([O-])C(F)(F)F,2,1.0,,,1528,False,CCCCCC[n+]1ccn(C)c1.O=S(=O)([O-])C(F)(F)F,No changes
HjbMY,313.15,100.0,1228.1,Warminska and Cichowska-Kopczynska (2022),Liquid,1.0,propan-2-ol,,,CCCCCC[n+]1ccn(C)c1.O=S(=O)([O-])C(F)(F)F,1-hexyl-3-methylimidazolium trifluoromethanesulfonate,ABIrWy,CC(C)O,propan-2-ol,AALcwx,CCCCCC[n+]1ccn(C)c1,O=S(=O)([O-])C(F)(F)F,2,0.0,,,1529,False,CCCCCC[n+]1ccn(C)c1.O=S(=O)([O-])C(F)(F)F,No changes
HjbMY,313.15,100.0,1209.4,Warminska and Cichowska-Kopczynska (2022),Liquid,0.8718,propan-2-ol,,,CCCCCC[n+]1ccn(C)c1.O=S(=O)([O-])C(F)(F)F,1-hexyl-3-methylimidazolium trifluoromethanesulfonate,ABIrWy,CC(C)O,propan-2-ol,AALcwx,CCCCCC[n+]1ccn(C)c1,O=S(=O)([O-])C(F)(F)F,2,0.1282,,,1530,False,CCCCCC[n+]1ccn(C)c1.O=S(=O)([O-])C(F)(F)F,No changes
HjbMY,313.15,100.0,1188.6,Warminska and Cichowska-Kopczynska (2022),Liquid,0.7545999999999999,propan-2-ol,,,CCCCCC[n+]1ccn(C)c1.O=S(=O)([O-])C(F)(F)F,1-hexyl-3-methylimidazolium trifluoromethanesulfonate,ABIrWy,CC(C)O,propan-2-ol,AALcwx,CCCCCC[n+]1ccn(C)c1,O=S(=O)([O-])C(F)(F)F,2,0.2454,,,1531,False,CCCCCC[n+]1ccn(C)c1.O=S(=O)([O-])C(F)(F)F,No changes
HjbMY,313.15,100.0,1165.8,Warminska and Cichowska-Kopczynska (2022),Liquid,0.6494,propan-2-ol,,,CCCCCC[n+]1ccn(C)c1.O=S(=O)([O-])C(F)(F)F,1-hexyl-3-methylimidazolium trifluoromethanesulfonate,ABIrWy,CC(C)O,propan-2-ol,AALcwx,CCCCCC[n+]1ccn(C)c1,O=S(=O)([O-])C(F)(F)F,2,0.3506,,,1532,False,CCCCCC[n+]1ccn(C)c1.O=S(=O)([O-])C(F)(F)F,No changes
HjbMY,313.15,100.0,1134.0,Warminska and Cichowska-Kopczynska (2022),Liquid,0.531,propan-2-ol,,,CCCCCC[n+]1ccn(C)c1.O=S(=O)([O-])C(F)(F)F,1-hexyl-3-methylimidazolium trifluoromethanesulfonate,ABIrWy,CC(C)O,propan-2-ol,AALcwx,CCCCCC[n+]1ccn(C)c1,O=S(=O)([O-])C(F)(F)F,2,0.469,,,1533,False,CCCCCC[n+]1ccn(C)c1.O=S(=O)([O-])C(F)(F)F,No changes
HjbMY,313.15,100.0,1098.6,Warminska and Cichowska-Kopczynska (2022),Liquid,0.4272,propan-2-ol,,,CCCCCC[n+]1ccn(C)c1.O=S(=O)([O-])C(F)(F)F,1-hexyl-3-methylimidazolium trifluoromethanesulfonate,ABIrWy,CC(C)O,propan-2-ol,AALcwx,CCCCCC[n+]1ccn(C)c1,O=S(=O)([O-])C(F)(F)F,2,0.5728,,,1534,False,CCCCCC[n+]1ccn(C)c1.O=S(=O)([O-])C(F)(F)F,No changes
HjbMY,313.15,100.0,1063.3,Warminska and Cichowska-Kopczynska (2022),Liquid,0.3436,propan-2-ol,,,CCCCCC[n+]1ccn(C)c1.O=S(=O)([O-])C(F)(F)F,1-hexyl-3-methylimidazolium trifluoromethanesulfonate,ABIrWy,CC(C)O,propan-2-ol,AALcwx,CCCCCC[n+]1ccn(C)c1,O=S(=O)([O-])C(F)(F)F,2,0.6564,,,1535,False,CCCCCC[n+]1ccn(C)c1.O=S(=O)([O-])C(F)(F)F,No changes
HjbMY,313.15,100.0,1008.9,Warminska and Cichowska-Kopczynska (2022),Liquid,0.2426,propan-2-ol,,,CCCCCC[n+]1ccn(C)c1.O=S(=O)([O-])C(F)(F)F,1-hexyl-3-methylimidazolium trifluoromethanesulfonate,ABIrWy,CC(C)O,propan-2-ol,AALcwx,CCCCCC[n+]1ccn(C)c1,O=S(=O)([O-])C(F)(F)F,2,0.7574,,,1536,False,CCCCCC[n+]1ccn(C)c1.O=S(=O)([O-])C(F)(F)F,No changes
HjbMY,313.15,100.0,948.4,Warminska and Cichowska-Kopczynska (2022),Liquid,0.1578,propan-2-ol,,,CCCCCC[n+]1ccn(C)c1.O=S(=O)([O-])C(F)(F)F,1-hexyl-3-methylimidazolium trifluoromethanesulfonate,ABIrWy,CC(C)O,propan-2-ol,AALcwx,CCCCCC[n+]1ccn(C)c1,O=S(=O)([O-])C(F)(F)F,2,0.8422,,,1537,False,CCCCCC[n+]1ccn(C)c1.O=S(=O)([O-])C(F)(F)F,No changes
HjbMY,313.15,100.0,870.6,Warminska and Cichowska-Kopczynska (2022),Liquid,0.0768999999999999,propan-2-ol,,,CCCCCC[n+]1ccn(C)c1.O=S(=O)([O-])C(F)(F)F,1-hexyl-3-methylimidazolium trifluoromethanesulfonate,ABIrWy,CC(C)O,propan-2-ol,AALcwx,CCCCCC[n+]1ccn(C)c1,O=S(=O)([O-])C(F)(F)F,2,0.9231,,,1538,False,CCCCCC[n+]1ccn(C)c1.O=S(=O)([O-])C(F)(F)F,No changes
HjbMY,313.15,100.0,768.0,Warminska and Cichowska-Kopczynska (2022),Liquid,0.0,propan-2-ol,,,CCCCCC[n+]1ccn(C)c1.O=S(=O)([O-])C(F)(F)F,1-hexyl-3-methylimidazolium trifluoromethanesulfonate,ABIrWy,CC(C)O,propan-2-ol,AALcwx,CCCCCC[n+]1ccn(C)c1,O=S(=O)([O-])C(F)(F)F,2,1.0,,,1539,False,CCCCCC[n+]1ccn(C)c1.O=S(=O)([O-])C(F)(F)F,No changes
KCXSZ,298.15,101.0,1237.6,Gonzalez et al. (2007),Liquid,1.0,propan-2-ol,,,CC[n+]1ccn(C)c1.CCOS(=O)(=O)[O-],1-ethyl-3-methylimidazolium ethyl sulfate,AAtWDT,CC(C)O,propan-2-ol,AALcwx,CC[n+]1ccn(C)c1,CCOS(=O)(=O)[O-],2,0.0,,,1540,False,CC[n+]1ccn(C)c1.CCOS(=O)(=O)[O-],No changes
KCXSZ,298.15,101.0,1214.3,Gonzalez et al. (2007),Liquid,0.8772,propan-2-ol,,,CC[n+]1ccn(C)c1.CCOS(=O)(=O)[O-],1-ethyl-3-methylimidazolium ethyl sulfate,AAtWDT,CC(C)O,propan-2-ol,AALcwx,CC[n+]1ccn(C)c1,CCOS(=O)(=O)[O-],2,0.1228,,,1541,False,CC[n+]1ccn(C)c1.CCOS(=O)(=O)[O-],No changes
KCXSZ,298.15,101.0,1196.4,Gonzalez et al. (2007),Liquid,0.7934,propan-2-ol,,,CC[n+]1ccn(C)c1.CCOS(=O)(=O)[O-],1-ethyl-3-methylimidazolium ethyl sulfate,AAtWDT,CC(C)O,propan-2-ol,AALcwx,CC[n+]1ccn(C)c1,CCOS(=O)(=O)[O-],2,0.2066,,,1542,False,CC[n+]1ccn(C)c1.CCOS(=O)(=O)[O-],No changes
KCXSZ,298.15,101.0,1170.9,Gonzalez et al. (2007),Liquid,0.6910000000000001,propan-2-ol,,,CC[n+]1ccn(C)c1.CCOS(=O)(=O)[O-],1-ethyl-3-methylimidazolium ethyl sulfate,AAtWDT,CC(C)O,propan-2-ol,AALcwx,CC[n+]1ccn(C)c1,CCOS(=O)(=O)[O-],2,0.309,,,1543,False,CC[n+]1ccn(C)c1.CCOS(=O)(=O)[O-],No changes
KCXSZ,298.15,101.0,1144.9,Gonzalez et al. (2007),Liquid,0.601,propan-2-ol,,,CC[n+]1ccn(C)c1.CCOS(=O)(=O)[O-],1-ethyl-3-methylimidazolium ethyl sulfate,AAtWDT,CC(C)O,propan-2-ol,AALcwx,CC[n+]1ccn(C)c1,CCOS(=O)(=O)[O-],2,0.399,,,1544,False,CC[n+]1ccn(C)c1.CCOS(=O)(=O)[O-],No changes
KCXSZ,298.15,101.0,1111.8,Gonzalez et al. (2007),Liquid,0.5023,propan-2-ol,,,CC[n+]1ccn(C)c1.CCOS(=O)(=O)[O-],1-ethyl-3-methylimidazolium ethyl sulfate,AAtWDT,CC(C)O,propan-2-ol,AALcwx,CC[n+]1ccn(C)c1,CCOS(=O)(=O)[O-],2,0.4977,,,1545,False,CC[n+]1ccn(C)c1.CCOS(=O)(=O)[O-],No changes
KCXSZ,298.15,101.0,1054.2,Gonzalez et al. (2007),Liquid,0.3659,propan-2-ol,,,CC[n+]1ccn(C)c1.CCOS(=O)(=O)[O-],1-ethyl-3-methylimidazolium ethyl sulfate,AAtWDT,CC(C)O,propan-2-ol,AALcwx,CC[n+]1ccn(C)c1,CCOS(=O)(=O)[O-],2,0.6341,,,1546,False,CC[n+]1ccn(C)c1.CCOS(=O)(=O)[O-],No changes
KCXSZ,298.15,101.0,1008.5,Gonzalez et al. (2007),Liquid,0.2776999999999999,propan-2-ol,,,CC[n+]1ccn(C)c1.CCOS(=O)(=O)[O-],1-ethyl-3-methylimidazolium ethyl sulfate,AAtWDT,CC(C)O,propan-2-ol,AALcwx,CC[n+]1ccn(C)c1,CCOS(=O)(=O)[O-],2,0.7223,,,1547,False,CC[n+]1ccn(C)c1.CCOS(=O)(=O)[O-],No changes
KCXSZ,298.15,101.0,920.2,Gonzalez et al. (2007),Liquid,0.1449,propan-2-ol,,,CC[n+]1ccn(C)c1.CCOS(=O)(=O)[O-],1-ethyl-3-methylimidazolium ethyl sulfate,AAtWDT,CC(C)O,propan-2-ol,AALcwx,CC[n+]1ccn(C)c1,CCOS(=O)(=O)[O-],2,0.8551,,,1548,False,CC[n+]1ccn(C)c1.CCOS(=O)(=O)[O-],No changes
KCXSZ,298.15,101.0,814.1,Gonzalez et al. (2007),Liquid,0.0293999999999999,propan-2-ol,,,CC[n+]1ccn(C)c1.CCOS(=O)(=O)[O-],1-ethyl-3-methylimidazolium ethyl sulfate,AAtWDT,CC(C)O,propan-2-ol,AALcwx,CC[n+]1ccn(C)c1,CCOS(=O)(=O)[O-],2,0.9706,,,1549,False,CC[n+]1ccn(C)c1.CCOS(=O)(=O)[O-],No changes
KCXSZ,298.15,101.0,780.7,Gonzalez et al. (2007),Liquid,0.0,propan-2-ol,,,CC[n+]1ccn(C)c1.CCOS(=O)(=O)[O-],1-ethyl-3-methylimidazolium ethyl sulfate,AAtWDT,CC(C)O,propan-2-ol,AALcwx,CC[n+]1ccn(C)c1,CCOS(=O)(=O)[O-],2,1.0,,,1550,False,CC[n+]1ccn(C)c1.CCOS(=O)(=O)[O-],No changes
KCXSZ,313.15,101.0,1227.5,Gonzalez et al. (2007),Liquid,1.0,propan-2-ol,,,CC[n+]1ccn(C)c1.CCOS(=O)(=O)[O-],1-ethyl-3-methylimidazolium ethyl sulfate,AAtWDT,CC(C)O,propan-2-ol,AALcwx,CC[n+]1ccn(C)c1,CCOS(=O)(=O)[O-],2,0.0,,,1551,False,CC[n+]1ccn(C)c1.CCOS(=O)(=O)[O-],No changes
KCXSZ,313.15,101.0,1204.4,Gonzalez et al. (2007),Liquid,0.8772,propan-2-ol,,,CC[n+]1ccn(C)c1.CCOS(=O)(=O)[O-],1-ethyl-3-methylimidazolium ethyl sulfate,AAtWDT,CC(C)O,propan-2-ol,AALcwx,CC[n+]1ccn(C)c1,CCOS(=O)(=O)[O-],2,0.1228,,,1552,False,CC[n+]1ccn(C)c1.CCOS(=O)(=O)[O-],No changes
KCXSZ,313.15,101.0,1186.4,Gonzalez et al. (2007),Liquid,0.7934,propan-2-ol,,,CC[n+]1ccn(C)c1.CCOS(=O)(=O)[O-],1-ethyl-3-methylimidazolium ethyl sulfate,AAtWDT,CC(C)O,propan-2-ol,AALcwx,CC[n+]1ccn(C)c1,CCOS(=O)(=O)[O-],2,0.2066,,,1553,False,CC[n+]1ccn(C)c1.CCOS(=O)(=O)[O-],No changes
KCXSZ,313.15,101.0,1160.9,Gonzalez et al. (2007),Liquid,0.6910000000000001,propan-2-ol,,,CC[n+]1ccn(C)c1.CCOS(=O)(=O)[O-],1-ethyl-3-methylimidazolium ethyl sulfate,AAtWDT,CC(C)O,propan-2-ol,AALcwx,CC[n+]1ccn(C)c1,CCOS(=O)(=O)[O-],2,0.309,,,1554,False,CC[n+]1ccn(C)c1.CCOS(=O)(=O)[O-],No changes
KCXSZ,313.15,101.0,1134.7,Gonzalez et al. (2007),Liquid,0.601,propan-2-ol,,,CC[n+]1ccn(C)c1.CCOS(=O)(=O)[O-],1-ethyl-3-methylimidazolium ethyl sulfate,AAtWDT,CC(C)O,propan-2-ol,AALcwx,CC[n+]1ccn(C)c1,CCOS(=O)(=O)[O-],2,0.399,,,1555,False,CC[n+]1ccn(C)c1.CCOS(=O)(=O)[O-],No changes
KCXSZ,313.15,101.0,1101.3,Gonzalez et al. (2007),Liquid,0.5023,propan-2-ol,,,CC[n+]1ccn(C)c1.CCOS(=O)(=O)[O-],1-ethyl-3-methylimidazolium ethyl sulfate,AAtWDT,CC(C)O,propan-2-ol,AALcwx,CC[n+]1ccn(C)c1,CCOS(=O)(=O)[O-],2,0.4977,,,1556,False,CC[n+]1ccn(C)c1.CCOS(=O)(=O)[O-],No changes
KCXSZ,313.15,101.0,1043.5,Gonzalez et al. (2007),Liquid,0.3659,propan-2-ol,,,CC[n+]1ccn(C)c1.CCOS(=O)(=O)[O-],1-ethyl-3-methylimidazolium ethyl sulfate,AAtWDT,CC(C)O,propan-2-ol,AALcwx,CC[n+]1ccn(C)c1,CCOS(=O)(=O)[O-],2,0.6341,,,1557,False,CC[n+]1ccn(C)c1.CCOS(=O)(=O)[O-],No changes
KCXSZ,313.15,101.0,997.4,Gonzalez et al. (2007),Liquid,0.2776999999999999,propan-2-ol,,,CC[n+]1ccn(C)c1.CCOS(=O)(=O)[O-],1-ethyl-3-methylimidazolium ethyl sulfate,AAtWDT,CC(C)O,propan-2-ol,AALcwx,CC[n+]1ccn(C)c1,CCOS(=O)(=O)[O-],2,0.7223,,,1558,False,CC[n+]1ccn(C)c1.CCOS(=O)(=O)[O-],No changes
KCXSZ,313.15,101.0,908.6,Gonzalez et al. (2007),Liquid,0.1449,propan-2-ol,,,CC[n+]1ccn(C)c1.CCOS(=O)(=O)[O-],1-ethyl-3-methylimidazolium ethyl sulfate,AAtWDT,CC(C)O,propan-2-ol,AALcwx,CC[n+]1ccn(C)c1,CCOS(=O)(=O)[O-],2,0.8551,,,1559,False,CC[n+]1ccn(C)c1.CCOS(=O)(=O)[O-],No changes