setid,Temperature (K),Pressure (kPa),Density (kg/m3),reference,phases,Mole fraction,Mole fraction of compound name,Weight fraction,Weight fraction of compound name,IL_SMILES,IL_name,IL_ID,Solvent_SMILES,Solvent_name,Solvent_ID,IL_cation_SMILES,IL_anion_SMILES,IL_component_number,Mole fraction of solvent,IL_MW,Solvent_MW,Record_ID,Contains_Metal,Standardized_IL_SMILES,Changes
QRfft,318.15,101.0,1079.7,Navas et al. (2009),Liquid,0.4397,1-butyl-2-methylpyridinium tetrafluoroborate,,,CCCC[n+]1ccccc1C.F[B-](F)(F)F,1-butyl-2-methylpyridinium tetrafluoroborate,AAtepM,CCO,ethanol,AAIsrh,CCCC[n+]1ccccc1C,F[B-](F)(F)F,2,,,,1462,False,CCCC[n+]1ccccc1C.F[B-](F)(F)F,No changes
QRfft,318.15,101.0,1119.4,Navas et al. (2009),Liquid,0.5814,1-butyl-2-methylpyridinium tetrafluoroborate,,,CCCC[n+]1ccccc1C.F[B-](F)(F)F,1-butyl-2-methylpyridinium tetrafluoroborate,AAtepM,CCO,ethanol,AAIsrh,CCCC[n+]1ccccc1C,F[B-](F)(F)F,2,,,,1463,False,CCCC[n+]1ccccc1C.F[B-](F)(F)F,No changes
QRfft,318.15,101.0,1134.3,Navas et al. (2009),Liquid,0.6499,1-butyl-2-methylpyridinium tetrafluoroborate,,,CCCC[n+]1ccccc1C.F[B-](F)(F)F,1-butyl-2-methylpyridinium tetrafluoroborate,AAtepM,CCO,ethanol,AAIsrh,CCCC[n+]1ccccc1C,F[B-](F)(F)F,2,,,,1464,False,CCCC[n+]1ccccc1C.F[B-](F)(F)F,No changes
QRfft,318.15,101.0,1145.8,Navas et al. (2009),Liquid,0.7104,1-butyl-2-methylpyridinium tetrafluoroborate,,,CCCC[n+]1ccccc1C.F[B-](F)(F)F,1-butyl-2-methylpyridinium tetrafluoroborate,AAtepM,CCO,ethanol,AAIsrh,CCCC[n+]1ccccc1C,F[B-](F)(F)F,2,,,,1465,False,CCCC[n+]1ccccc1C.F[B-](F)(F)F,No changes
QRfft,318.15,101.0,1158.7,Navas et al. (2009),Liquid,0.7827,1-butyl-2-methylpyridinium tetrafluoroborate,,,CCCC[n+]1ccccc1C.F[B-](F)(F)F,1-butyl-2-methylpyridinium tetrafluoroborate,AAtepM,CCO,ethanol,AAIsrh,CCCC[n+]1ccccc1C,F[B-](F)(F)F,2,,,,1466,False,CCCC[n+]1ccccc1C.F[B-](F)(F)F,No changes
QRfft,318.15,101.0,1171.06,Navas et al. (2009),Liquid,0.8665,1-butyl-2-methylpyridinium tetrafluoroborate,,,CCCC[n+]1ccccc1C.F[B-](F)(F)F,1-butyl-2-methylpyridinium tetrafluoroborate,AAtepM,CCO,ethanol,AAIsrh,CCCC[n+]1ccccc1C,F[B-](F)(F)F,2,,,,1467,False,CCCC[n+]1ccccc1C.F[B-](F)(F)F,No changes
QRfft,318.15,101.0,1177.48,Navas et al. (2009),Liquid,0.9135,1-butyl-2-methylpyridinium tetrafluoroborate,,,CCCC[n+]1ccccc1C.F[B-](F)(F)F,1-butyl-2-methylpyridinium tetrafluoroborate,AAtepM,CCO,ethanol,AAIsrh,CCCC[n+]1ccccc1C,F[B-](F)(F)F,2,,,,1468,False,CCCC[n+]1ccccc1C.F[B-](F)(F)F,No changes
arvoD,298.15,101.0,893.0,Rilo et al. (2009),Liquid,0.1012,1-methyl-3-octylimidazolium tetrafluoroborate,,,CCCCCCCCn1cc[n+](C)c1.F[B-](F)(F)F,1-methyl-3-octylimidazolium tetrafluoroborate,ABCNhW,CCO,ethanol,AAIsrh,CCCCCCCCn1cc[n+](C)c1,F[B-](F)(F)F,2,,,,1469,False,CCCCCCCCn1cc[n+](C)c1.F[B-](F)(F)F,No changes
arvoD,298.15,101.0,957.9,Rilo et al. (2009),Liquid,0.2034,1-methyl-3-octylimidazolium tetrafluoroborate,,,CCCCCCCCn1cc[n+](C)c1.F[B-](F)(F)F,1-methyl-3-octylimidazolium tetrafluoroborate,ABCNhW,CCO,ethanol,AAIsrh,CCCCCCCCn1cc[n+](C)c1,F[B-](F)(F)F,2,,,,1470,False,CCCCCCCCn1cc[n+](C)c1.F[B-](F)(F)F,No changes
arvoD,298.15,101.0,996.6,Rilo et al. (2009),Liquid,0.3,1-methyl-3-octylimidazolium tetrafluoroborate,,,CCCCCCCCn1cc[n+](C)c1.F[B-](F)(F)F,1-methyl-3-octylimidazolium tetrafluoroborate,ABCNhW,CCO,ethanol,AAIsrh,CCCCCCCCn1cc[n+](C)c1,F[B-](F)(F)F,2,,,,1471,False,CCCCCCCCn1cc[n+](C)c1.F[B-](F)(F)F,No changes
arvoD,298.15,101.0,1026.4,Rilo et al. (2009),Liquid,0.4096,1-methyl-3-octylimidazolium tetrafluoroborate,,,CCCCCCCCn1cc[n+](C)c1.F[B-](F)(F)F,1-methyl-3-octylimidazolium tetrafluoroborate,ABCNhW,CCO,ethanol,AAIsrh,CCCCCCCCn1cc[n+](C)c1,F[B-](F)(F)F,2,,,,1472,False,CCCCCCCCn1cc[n+](C)c1.F[B-](F)(F)F,No changes
arvoD,298.15,101.0,1047.8,Rilo et al. (2009),Liquid,0.5125,1-methyl-3-octylimidazolium tetrafluoroborate,,,CCCCCCCCn1cc[n+](C)c1.F[B-](F)(F)F,1-methyl-3-octylimidazolium tetrafluoroborate,ABCNhW,CCO,ethanol,AAIsrh,CCCCCCCCn1cc[n+](C)c1,F[B-](F)(F)F,2,,,,1473,False,CCCCCCCCn1cc[n+](C)c1.F[B-](F)(F)F,No changes
arvoD,298.15,101.0,1065.2,Rilo et al. (2009),Liquid,0.6156,1-methyl-3-octylimidazolium tetrafluoroborate,,,CCCCCCCCn1cc[n+](C)c1.F[B-](F)(F)F,1-methyl-3-octylimidazolium tetrafluoroborate,ABCNhW,CCO,ethanol,AAIsrh,CCCCCCCCn1cc[n+](C)c1,F[B-](F)(F)F,2,,,,1474,False,CCCCCCCCn1cc[n+](C)c1.F[B-](F)(F)F,No changes
arvoD,298.15,101.0,1079.3,Rilo et al. (2009),Liquid,0.7207,1-methyl-3-octylimidazolium tetrafluoroborate,,,CCCCCCCCn1cc[n+](C)c1.F[B-](F)(F)F,1-methyl-3-octylimidazolium tetrafluoroborate,ABCNhW,CCO,ethanol,AAIsrh,CCCCCCCCn1cc[n+](C)c1,F[B-](F)(F)F,2,,,,1475,False,CCCCCCCCn1cc[n+](C)c1.F[B-](F)(F)F,No changes
arvoD,298.15,101.0,1088.8,Rilo et al. (2009),Liquid,0.815,1-methyl-3-octylimidazolium tetrafluoroborate,,,CCCCCCCCn1cc[n+](C)c1.F[B-](F)(F)F,1-methyl-3-octylimidazolium tetrafluoroborate,ABCNhW,CCO,ethanol,AAIsrh,CCCCCCCCn1cc[n+](C)c1,F[B-](F)(F)F,2,,,,1476,False,CCCCCCCCn1cc[n+](C)c1.F[B-](F)(F)F,No changes
arvoD,298.15,101.0,1095.6,Rilo et al. (2009),Liquid,0.9014,1-methyl-3-octylimidazolium tetrafluoroborate,,,CCCCCCCCn1cc[n+](C)c1.F[B-](F)(F)F,1-methyl-3-octylimidazolium tetrafluoroborate,ABCNhW,CCO,ethanol,AAIsrh,CCCCCCCCn1cc[n+](C)c1,F[B-](F)(F)F,2,,,,1477,False,CCCCCCCCn1cc[n+](C)c1.F[B-](F)(F)F,No changes
arvoD,298.15,101.0,1104.2,Rilo et al. (2009),Liquid,1.0,1-methyl-3-octylimidazolium tetrafluoroborate,,,CCCCCCCCn1cc[n+](C)c1.F[B-](F)(F)F,1-methyl-3-octylimidazolium tetrafluoroborate,ABCNhW,CCO,ethanol,AAIsrh,CCCCCCCCn1cc[n+](C)c1,F[B-](F)(F)F,2,,,,1478,False,CCCCCCCCn1cc[n+](C)c1.F[B-](F)(F)F,No changes
mtuSp,298.15,101.0,1008.8,Gonzalez et al. (2006),Liquid,1.0,ethanol,,,CCCCCCCCn1cc[n+](C)c1.[Cl-],1-methyl-3-octylimidazolium chloride,AAsTjr,CCO,ethanol,AAIsrh,CCCCCCCCn1cc[n+](C)c1,[Cl-],2,0.0,,,1479,False,CCCCCCCCn1cc[n+](C)c1.[Cl-],No changes
mtuSp,298.15,101.0,1006.3,Gonzalez et al. (2006),Liquid,0.9551,ethanol,,,CCCCCCCCn1cc[n+](C)c1.[Cl-],1-methyl-3-octylimidazolium chloride,AAsTjr,CCO,ethanol,AAIsrh,CCCCCCCCn1cc[n+](C)c1,[Cl-],2,0.0449,,,1480,False,CCCCCCCCn1cc[n+](C)c1.[Cl-],No changes
mtuSp,298.15,101.0,1001.0,Gonzalez et al. (2006),Liquid,0.8694999999999999,ethanol,,,CCCCCCCCn1cc[n+](C)c1.[Cl-],1-methyl-3-octylimidazolium chloride,AAsTjr,CCO,ethanol,AAIsrh,CCCCCCCCn1cc[n+](C)c1,[Cl-],2,0.1305,,,1481,False,CCCCCCCCn1cc[n+](C)c1.[Cl-],No changes
mtuSp,298.15,101.0,988.5,Gonzalez et al. (2006),Liquid,0.7031000000000001,ethanol,,,CCCCCCCCn1cc[n+](C)c1.[Cl-],1-methyl-3-octylimidazolium chloride,AAsTjr,CCO,ethanol,AAIsrh,CCCCCCCCn1cc[n+](C)c1,[Cl-],2,0.2969,,,1482,False,CCCCCCCCn1cc[n+](C)c1.[Cl-],No changes
mtuSp,298.15,101.0,969.8,Gonzalez et al. (2006),Liquid,0.5246999999999999,ethanol,,,CCCCCCCCn1cc[n+](C)c1.[Cl-],1-methyl-3-octylimidazolium chloride,AAsTjr,CCO,ethanol,AAIsrh,CCCCCCCCn1cc[n+](C)c1,[Cl-],2,0.4753,,,1483,False,CCCCCCCCn1cc[n+](C)c1.[Cl-],No changes
mtuSp,298.15,101.0,933.54,Gonzalez et al. (2006),Liquid,0.3142,ethanol,,,CCCCCCCCn1cc[n+](C)c1.[Cl-],1-methyl-3-octylimidazolium chloride,AAsTjr,CCO,ethanol,AAIsrh,CCCCCCCCn1cc[n+](C)c1,[Cl-],2,0.6858,,,1484,False,CCCCCCCCn1cc[n+](C)c1.[Cl-],No changes
mtuSp,298.15,101.0,868.64,Gonzalez et al. (2006),Liquid,0.1190999999999999,ethanol,,,CCCCCCCCn1cc[n+](C)c1.[Cl-],1-methyl-3-octylimidazolium chloride,AAsTjr,CCO,ethanol,AAIsrh,CCCCCCCCn1cc[n+](C)c1,[Cl-],2,0.8809,,,1485,False,CCCCCCCCn1cc[n+](C)c1.[Cl-],No changes
mtuSp,298.15,101.0,849.07,Gonzalez et al. (2006),Liquid,0.0829999999999999,ethanol,,,CCCCCCCCn1cc[n+](C)c1.[Cl-],1-methyl-3-octylimidazolium chloride,AAsTjr,CCO,ethanol,AAIsrh,CCCCCCCCn1cc[n+](C)c1,[Cl-],2,0.917,,,1486,False,CCCCCCCCn1cc[n+](C)c1.[Cl-],No changes
mtuSp,298.15,101.0,824.08,Gonzalez et al. (2006),Liquid,0.045,ethanol,,,CCCCCCCCn1cc[n+](C)c1.[Cl-],1-methyl-3-octylimidazolium chloride,AAsTjr,CCO,ethanol,AAIsrh,CCCCCCCCn1cc[n+](C)c1,[Cl-],2,0.955,,,1487,False,CCCCCCCCn1cc[n+](C)c1.[Cl-],No changes
mtuSp,298.15,101.0,804.61,Gonzalez et al. (2006),Liquid,0.0205999999999999,ethanol,,,CCCCCCCCn1cc[n+](C)c1.[Cl-],1-methyl-3-octylimidazolium chloride,AAsTjr,CCO,ethanol,AAIsrh,CCCCCCCCn1cc[n+](C)c1,[Cl-],2,0.9794,,,1488,False,CCCCCCCCn1cc[n+](C)c1.[Cl-],No changes
mtuSp,298.15,101.0,785.11,Gonzalez et al. (2006),Liquid,0.0,ethanol,,,CCCCCCCCn1cc[n+](C)c1.[Cl-],1-methyl-3-octylimidazolium chloride,AAsTjr,CCO,ethanol,AAIsrh,CCCCCCCCn1cc[n+](C)c1,[Cl-],2,1.0,,,1489,False,CCCCCCCCn1cc[n+](C)c1.[Cl-],No changes
mtuSp,313.15,101.0,1000.2,Gonzalez et al. (2006),Liquid,1.0,ethanol,,,CCCCCCCCn1cc[n+](C)c1.[Cl-],1-methyl-3-octylimidazolium chloride,AAsTjr,CCO,ethanol,AAIsrh,CCCCCCCCn1cc[n+](C)c1,[Cl-],2,0.0,,,1490,False,CCCCCCCCn1cc[n+](C)c1.[Cl-],No changes
mtuSp,313.15,101.0,997.6,Gonzalez et al. (2006),Liquid,0.9551,ethanol,,,CCCCCCCCn1cc[n+](C)c1.[Cl-],1-methyl-3-octylimidazolium chloride,AAsTjr,CCO,ethanol,AAIsrh,CCCCCCCCn1cc[n+](C)c1,[Cl-],2,0.0449,,,1491,False,CCCCCCCCn1cc[n+](C)c1.[Cl-],No changes
mtuSp,313.15,101.0,992.2,Gonzalez et al. (2006),Liquid,0.8694999999999999,ethanol,,,CCCCCCCCn1cc[n+](C)c1.[Cl-],1-methyl-3-octylimidazolium chloride,AAsTjr,CCO,ethanol,AAIsrh,CCCCCCCCn1cc[n+](C)c1,[Cl-],2,0.1305,,,1492,False,CCCCCCCCn1cc[n+](C)c1.[Cl-],No changes
mtuSp,313.15,101.0,979.6,Gonzalez et al. (2006),Liquid,0.7031000000000001,ethanol,,,CCCCCCCCn1cc[n+](C)c1.[Cl-],1-methyl-3-octylimidazolium chloride,AAsTjr,CCO,ethanol,AAIsrh,CCCCCCCCn1cc[n+](C)c1,[Cl-],2,0.2969,,,1493,False,CCCCCCCCn1cc[n+](C)c1.[Cl-],No changes
mtuSp,313.15,101.0,960.8,Gonzalez et al. (2006),Liquid,0.5246999999999999,ethanol,,,CCCCCCCCn1cc[n+](C)c1.[Cl-],1-methyl-3-octylimidazolium chloride,AAsTjr,CCO,ethanol,AAIsrh,CCCCCCCCn1cc[n+](C)c1,[Cl-],2,0.4753,,,1494,False,CCCCCCCCn1cc[n+](C)c1.[Cl-],No changes
mtuSp,313.15,101.0,923.78,Gonzalez et al. (2006),Liquid,0.3142,ethanol,,,CCCCCCCCn1cc[n+](C)c1.[Cl-],1-methyl-3-octylimidazolium chloride,AAsTjr,CCO,ethanol,AAIsrh,CCCCCCCCn1cc[n+](C)c1,[Cl-],2,0.6858,,,1495,False,CCCCCCCCn1cc[n+](C)c1.[Cl-],No changes
mtuSp,313.15,101.0,857.66,Gonzalez et al. (2006),Liquid,0.1190999999999999,ethanol,,,CCCCCCCCn1cc[n+](C)c1.[Cl-],1-methyl-3-octylimidazolium chloride,AAsTjr,CCO,ethanol,AAIsrh,CCCCCCCCn1cc[n+](C)c1,[Cl-],2,0.8809,,,1496,False,CCCCCCCCn1cc[n+](C)c1.[Cl-],No changes
mtuSp,313.15,101.0,837.68,Gonzalez et al. (2006),Liquid,0.0829999999999999,ethanol,,,CCCCCCCCn1cc[n+](C)c1.[Cl-],1-methyl-3-octylimidazolium chloride,AAsTjr,CCO,ethanol,AAIsrh,CCCCCCCCn1cc[n+](C)c1,[Cl-],2,0.917,,,1497,False,CCCCCCCCn1cc[n+](C)c1.[Cl-],No changes
mtuSp,313.15,101.0,812.12,Gonzalez et al. (2006),Liquid,0.045,ethanol,,,CCCCCCCCn1cc[n+](C)c1.[Cl-],1-methyl-3-octylimidazolium chloride,AAsTjr,CCO,ethanol,AAIsrh,CCCCCCCCn1cc[n+](C)c1,[Cl-],2,0.955,,,1498,False,CCCCCCCCn1cc[n+](C)c1.[Cl-],No changes
mtuSp,313.15,101.0,792.15,Gonzalez et al. (2006),Liquid,0.0205999999999999,ethanol,,,CCCCCCCCn1cc[n+](C)c1.[Cl-],1-methyl-3-octylimidazolium chloride,AAsTjr,CCO,ethanol,AAIsrh,CCCCCCCCn1cc[n+](C)c1,[Cl-],2,0.9794,,,1499,False,CCCCCCCCn1cc[n+](C)c1.[Cl-],No changes
mtuSp,313.15,101.0,772.07,Gonzalez et al. (2006),Liquid,0.0,ethanol,,,CCCCCCCCn1cc[n+](C)c1.[Cl-],1-methyl-3-octylimidazolium chloride,AAsTjr,CCO,ethanol,AAIsrh,CCCCCCCCn1cc[n+](C)c1,[Cl-],2,1.0,,,1500,False,CCCCCCCCn1cc[n+](C)c1.[Cl-],No changes
mtuSp,328.15,101.0,991.7,Gonzalez et al. (2006),Liquid,1.0,ethanol,,,CCCCCCCCn1cc[n+](C)c1.[Cl-],1-methyl-3-octylimidazolium chloride,AAsTjr,CCO,ethanol,AAIsrh,CCCCCCCCn1cc[n+](C)c1,[Cl-],2,0.0,,,1501,False,CCCCCCCCn1cc[n+](C)c1.[Cl-],No changes
mtuSp,328.15,101.0,989.0,Gonzalez et al. (2006),Liquid,0.9551,ethanol,,,CCCCCCCCn1cc[n+](C)c1.[Cl-],1-methyl-3-octylimidazolium chloride,AAsTjr,CCO,ethanol,AAIsrh,CCCCCCCCn1cc[n+](C)c1,[Cl-],2,0.0449,,,1502,False,CCCCCCCCn1cc[n+](C)c1.[Cl-],No changes
mtuSp,328.15,101.0,983.6,Gonzalez et al. (2006),Liquid,0.8694999999999999,ethanol,,,CCCCCCCCn1cc[n+](C)c1.[Cl-],1-methyl-3-octylimidazolium chloride,AAsTjr,CCO,ethanol,AAIsrh,CCCCCCCCn1cc[n+](C)c1,[Cl-],2,0.1305,,,1503,False,CCCCCCCCn1cc[n+](C)c1.[Cl-],No changes
mtuSp,328.15,101.0,971.0,Gonzalez et al. (2006),Liquid,0.7031000000000001,ethanol,,,CCCCCCCCn1cc[n+](C)c1.[Cl-],1-methyl-3-octylimidazolium chloride,AAsTjr,CCO,ethanol,AAIsrh,CCCCCCCCn1cc[n+](C)c1,[Cl-],2,0.2969,,,1504,False,CCCCCCCCn1cc[n+](C)c1.[Cl-],No changes
mtuSp,328.15,101.0,951.7,Gonzalez et al. (2006),Liquid,0.5246999999999999,ethanol,,,CCCCCCCCn1cc[n+](C)c1.[Cl-],1-methyl-3-octylimidazolium chloride,AAsTjr,CCO,ethanol,AAIsrh,CCCCCCCCn1cc[n+](C)c1,[Cl-],2,0.4753,,,1505,False,CCCCCCCCn1cc[n+](C)c1.[Cl-],No changes
mtuSp,328.15,101.0,914.05,Gonzalez et al. (2006),Liquid,0.3142,ethanol,,,CCCCCCCCn1cc[n+](C)c1.[Cl-],1-methyl-3-octylimidazolium chloride,AAsTjr,CCO,ethanol,AAIsrh,CCCCCCCCn1cc[n+](C)c1,[Cl-],2,0.6858,,,1506,False,CCCCCCCCn1cc[n+](C)c1.[Cl-],No changes
mtuSp,328.15,101.0,846.68,Gonzalez et al. (2006),Liquid,0.1190999999999999,ethanol,,,CCCCCCCCn1cc[n+](C)c1.[Cl-],1-methyl-3-octylimidazolium chloride,AAsTjr,CCO,ethanol,AAIsrh,CCCCCCCCn1cc[n+](C)c1,[Cl-],2,0.8809,,,1507,False,CCCCCCCCn1cc[n+](C)c1.[Cl-],No changes
mtuSp,328.15,101.0,826.15,Gonzalez et al. (2006),Liquid,0.0829999999999999,ethanol,,,CCCCCCCCn1cc[n+](C)c1.[Cl-],1-methyl-3-octylimidazolium chloride,AAsTjr,CCO,ethanol,AAIsrh,CCCCCCCCn1cc[n+](C)c1,[Cl-],2,0.917,,,1508,False,CCCCCCCCn1cc[n+](C)c1.[Cl-],No changes
mtuSp,328.15,101.0,799.94,Gonzalez et al. (2006),Liquid,0.045,ethanol,,,CCCCCCCCn1cc[n+](C)c1.[Cl-],1-methyl-3-octylimidazolium chloride,AAsTjr,CCO,ethanol,AAIsrh,CCCCCCCCn1cc[n+](C)c1,[Cl-],2,0.955,,,1509,False,CCCCCCCCn1cc[n+](C)c1.[Cl-],No changes
mtuSp,328.15,101.0,779.38,Gonzalez et al. (2006),Liquid,0.0205999999999999,ethanol,,,CCCCCCCCn1cc[n+](C)c1.[Cl-],1-methyl-3-octylimidazolium chloride,AAsTjr,CCO,ethanol,AAIsrh,CCCCCCCCn1cc[n+](C)c1,[Cl-],2,0.9794,,,1510,False,CCCCCCCCn1cc[n+](C)c1.[Cl-],No changes
mtuSp,328.15,101.0,758.6,Gonzalez et al. (2006),Liquid,0.0,ethanol,,,CCCCCCCCn1cc[n+](C)c1.[Cl-],1-methyl-3-octylimidazolium chloride,AAsTjr,CCO,ethanol,AAIsrh,CCCCCCCCn1cc[n+](C)c1,[Cl-],2,1.0,,,1511,False,CCCCCCCCn1cc[n+](C)c1.[Cl-],No changes
gpuuI,298.15,101.0,852.0,Ortega et al. (2008),Liquid,0.0523,1-butyl-4-methylpyridinium tetrafluoroborate,,,CCCC[n+]1ccc(C)cc1.F[B-](F)(F)F,1-butyl-4-methylpyridinium tetrafluoroborate,AAtevY,CCO,ethanol,AAIsrh,CCCC[n+]1ccc(C)cc1,F[B-](F)(F)F,2,,,,1512,False,CCCC[n+]1ccc(C)cc1.F[B-](F)(F)F,No changes
gpuuI,298.15,101.0,901.7,Ortega et al. (2008),Liquid,0.1023,1-butyl-4-methylpyridinium tetrafluoroborate,,,CCCC[n+]1ccc(C)cc1.F[B-](F)(F)F,1-butyl-4-methylpyridinium tetrafluoroborate,AAtevY,CCO,ethanol,AAIsrh,CCCC[n+]1ccc(C)cc1,F[B-](F)(F)F,2,,,,1513,False,CCCC[n+]1ccc(C)cc1.F[B-](F)(F)F,No changes
gpuuI,298.15,101.0,938.3,Ortega et al. (2008),Liquid,0.1469,1-butyl-4-methylpyridinium tetrafluoroborate,,,CCCC[n+]1ccc(C)cc1.F[B-](F)(F)F,1-butyl-4-methylpyridinium tetrafluoroborate,AAtevY,CCO,ethanol,AAIsrh,CCCC[n+]1ccc(C)cc1,F[B-](F)(F)F,2,,,,1514,False,CCCC[n+]1ccc(C)cc1.F[B-](F)(F)F,No changes
gpuuI,298.15,101.0,976.0,Ortega et al. (2008),Liquid,0.2023,1-butyl-4-methylpyridinium tetrafluoroborate,,,CCCC[n+]1ccc(C)cc1.F[B-](F)(F)F,1-butyl-4-methylpyridinium tetrafluoroborate,AAtevY,CCO,ethanol,AAIsrh,CCCC[n+]1ccc(C)cc1,F[B-](F)(F)F,2,,,,1515,False,CCCC[n+]1ccc(C)cc1.F[B-](F)(F)F,No changes
gpuuI,298.15,101.0,1030.5,Ortega et al. (2008),Liquid,0.307,1-butyl-4-methylpyridinium tetrafluoroborate,,,CCCC[n+]1ccc(C)cc1.F[B-](F)(F)F,1-butyl-4-methylpyridinium tetrafluoroborate,AAtevY,CCO,ethanol,AAIsrh,CCCC[n+]1ccc(C)cc1,F[B-](F)(F)F,2,,,,1516,False,CCCC[n+]1ccc(C)cc1.F[B-](F)(F)F,No changes
gpuuI,298.15,101.0,1059.5,Ortega et al. (2008),Liquid,0.3801,1-butyl-4-methylpyridinium tetrafluoroborate,,,CCCC[n+]1ccc(C)cc1.F[B-](F)(F)F,1-butyl-4-methylpyridinium tetrafluoroborate,AAtevY,CCO,ethanol,AAIsrh,CCCC[n+]1ccc(C)cc1,F[B-](F)(F)F,2,,,,1517,False,CCCC[n+]1ccc(C)cc1.F[B-](F)(F)F,No changes
gpuuI,298.15,101.0,1080.8,Ortega et al. (2008),Liquid,0.4445,1-butyl-4-methylpyridinium tetrafluoroborate,,,CCCC[n+]1ccc(C)cc1.F[B-](F)(F)F,1-butyl-4-methylpyridinium tetrafluoroborate,AAtevY,CCO,ethanol,AAIsrh,CCCC[n+]1ccc(C)cc1,F[B-](F)(F)F,2,,,,1518,False,CCCC[n+]1ccc(C)cc1.F[B-](F)(F)F,No changes
gpuuI,298.15,101.0,1098.6,Ortega et al. (2008),Liquid,0.5069,1-butyl-4-methylpyridinium tetrafluoroborate,,,CCCC[n+]1ccc(C)cc1.F[B-](F)(F)F,1-butyl-4-methylpyridinium tetrafluoroborate,AAtevY,CCO,ethanol,AAIsrh,CCCC[n+]1ccc(C)cc1,F[B-](F)(F)F,2,,,,1519,False,CCCC[n+]1ccc(C)cc1.F[B-](F)(F)F,No changes
gpuuI,298.15,101.0,1110.8,Ortega et al. (2008),Liquid,0.5553,1-butyl-4-methylpyridinium tetrafluoroborate,,,CCCC[n+]1ccc(C)cc1.F[B-](F)(F)F,1-butyl-4-methylpyridinium tetrafluoroborate,AAtevY,CCO,ethanol,AAIsrh,CCCC[n+]1ccc(C)cc1,F[B-](F)(F)F,2,,,,1520,False,CCCC[n+]1ccc(C)cc1.F[B-](F)(F)F,No changes
gpuuI,298.15,101.0,1121.8,Ortega et al. (2008),Liquid,0.6045,1-butyl-4-methylpyridinium tetrafluoroborate,,,CCCC[n+]1ccc(C)cc1.F[B-](F)(F)F,1-butyl-4-methylpyridinium tetrafluoroborate,AAtevY,CCO,ethanol,AAIsrh,CCCC[n+]1ccc(C)cc1,F[B-](F)(F)F,2,,,,1521,False,CCCC[n+]1ccc(C)cc1.F[B-](F)(F)F,No changes
gpuuI,298.15,101.0,1134.2,Ortega et al. (2008),Liquid,0.6639,1-butyl-4-methylpyridinium tetrafluoroborate,,,CCCC[n+]1ccc(C)cc1.F[B-](F)(F)F,1-butyl-4-methylpyridinium tetrafluoroborate,AAtevY,CCO,ethanol,AAIsrh,CCCC[n+]1ccc(C)cc1,F[B-](F)(F)F,2,,,,1522,False,CCCC[n+]1ccc(C)cc1.F[B-](F)(F)F,No changes
gpuuI,298.15,101.0,1142.8,Ortega et al. (2008),Liquid,0.7127,1-butyl-4-methylpyridinium tetrafluoroborate,,,CCCC[n+]1ccc(C)cc1.F[B-](F)(F)F,1-butyl-4-methylpyridinium tetrafluoroborate,AAtevY,CCO,ethanol,AAIsrh,CCCC[n+]1ccc(C)cc1,F[B-](F)(F)F,2,,,,1523,False,CCCC[n+]1ccc(C)cc1.F[B-](F)(F)F,No changes
gpuuI,298.15,101.0,1148.4,Ortega et al. (2008),Liquid,0.7447,1-butyl-4-methylpyridinium tetrafluoroborate,,,CCCC[n+]1ccc(C)cc1.F[B-](F)(F)F,1-butyl-4-methylpyridinium tetrafluoroborate,AAtevY,CCO,ethanol,AAIsrh,CCCC[n+]1ccc(C)cc1,F[B-](F)(F)F,2,,,,1524,False,CCCC[n+]1ccc(C)cc1.F[B-](F)(F)F,No changes
gpuuI,298.15,101.0,1156.8,Ortega et al. (2008),Liquid,0.7964,1-butyl-4-methylpyridinium tetrafluoroborate,,,CCCC[n+]1ccc(C)cc1.F[B-](F)(F)F,1-butyl-4-methylpyridinium tetrafluoroborate,AAtevY,CCO,ethanol,AAIsrh,CCCC[n+]1ccc(C)cc1,F[B-](F)(F)F,2,,,,1525,False,CCCC[n+]1ccc(C)cc1.F[B-](F)(F)F,No changes
gpuuI,298.15,101.0,1167.0,Ortega et al. (2008),Liquid,0.8673,1-butyl-4-methylpyridinium tetrafluoroborate,,,CCCC[n+]1ccc(C)cc1.F[B-](F)(F)F,1-butyl-4-methylpyridinium tetrafluoroborate,AAtevY,CCO,ethanol,AAIsrh,CCCC[n+]1ccc(C)cc1,F[B-](F)(F)F,2,,,,1526,False,CCCC[n+]1ccc(C)cc1.F[B-](F)(F)F,No changes
gpuuI,298.15,101.0,1173.6,Ortega et al. (2008),Liquid,0.9171,1-butyl-4-methylpyridinium tetrafluoroborate,,,CCCC[n+]1ccc(C)cc1.F[B-](F)(F)F,1-butyl-4-methylpyridinium tetrafluoroborate,AAtevY,CCO,ethanol,AAIsrh,CCCC[n+]1ccc(C)cc1,F[B-](F)(F)F,2,,,,1527,False,CCCC[n+]1ccc(C)cc1.F[B-](F)(F)F,No changes
gpuuI,318.15,101.0,827.9,Ortega et al. (2008),Liquid,0.0464,1-butyl-4-methylpyridinium tetrafluoroborate,,,CCCC[n+]1ccc(C)cc1.F[B-](F)(F)F,1-butyl-4-methylpyridinium tetrafluoroborate,AAtevY,CCO,ethanol,AAIsrh,CCCC[n+]1ccc(C)cc1,F[B-](F)(F)F,2,,,,1528,False,CCCC[n+]1ccc(C)cc1.F[B-](F)(F)F,No changes
gpuuI,318.15,101.0,881.1,Ortega et al. (2008),Liquid,0.0965,1-butyl-4-methylpyridinium tetrafluoroborate,,,CCCC[n+]1ccc(C)cc1.F[B-](F)(F)F,1-butyl-4-methylpyridinium tetrafluoroborate,AAtevY,CCO,ethanol,AAIsrh,CCCC[n+]1ccc(C)cc1,F[B-](F)(F)F,2,,,,1529,False,CCCC[n+]1ccc(C)cc1.F[B-](F)(F)F,No changes
gpuuI,318.15,101.0,921.6,Ortega et al. (2008),Liquid,0.1445,1-butyl-4-methylpyridinium tetrafluoroborate,,,CCCC[n+]1ccc(C)cc1.F[B-](F)(F)F,1-butyl-4-methylpyridinium tetrafluoroborate,AAtevY,CCO,ethanol,AAIsrh,CCCC[n+]1ccc(C)cc1,F[B-](F)(F)F,2,,,,1530,False,CCCC[n+]1ccc(C)cc1.F[B-](F)(F)F,No changes