setid,Temperature (K),Pressure (kPa),Density (kg/m3),reference,phases,Mole fraction,Mole fraction of compound name,Weight fraction,Weight fraction of compound name,IL_SMILES,IL_name,IL_ID,Solvent_SMILES,Solvent_name,Solvent_ID,IL_cation_SMILES,IL_anion_SMILES,IL_component_number,Mole fraction of solvent,IL_MW,Solvent_MW,Record_ID,Contains_Metal,Standardized_IL_SMILES,Changes
QbJzZ,298.15,101.0,1040.4,Gomez et al. (2006a),Liquid,1.0,ethanol,,,CCCCCC[n+]1ccn(C)c1.[Cl-],1-hexyl-3-methylimidazolium chloride,AAmzKp,CCO,ethanol,AAIsrh,CCCCCC[n+]1ccn(C)c1,[Cl-],2,0.0,,,202,False,CCCCCC[n+]1ccn(C)c1.[Cl-],No changes
QbJzZ,298.15,101.0,1032.8,Gomez et al. (2006a),Liquid,0.902,ethanol,,,CCCCCC[n+]1ccn(C)c1.[Cl-],1-hexyl-3-methylimidazolium chloride,AAmzKp,CCO,ethanol,AAIsrh,CCCCCC[n+]1ccn(C)c1,[Cl-],2,0.098,,,203,False,CCCCCC[n+]1ccn(C)c1.[Cl-],No changes
QbJzZ,298.15,101.0,1024.0,Gomez et al. (2006a),Liquid,0.804,ethanol,,,CCCCCC[n+]1ccn(C)c1.[Cl-],1-hexyl-3-methylimidazolium chloride,AAmzKp,CCO,ethanol,AAIsrh,CCCCCC[n+]1ccn(C)c1,[Cl-],2,0.196,,,204,False,CCCCCC[n+]1ccn(C)c1.[Cl-],No changes
QbJzZ,298.15,101.0,1014.0,Gomez et al. (2006a),Liquid,0.7101999999999999,ethanol,,,CCCCCC[n+]1ccn(C)c1.[Cl-],1-hexyl-3-methylimidazolium chloride,AAmzKp,CCO,ethanol,AAIsrh,CCCCCC[n+]1ccn(C)c1,[Cl-],2,0.2898,,,205,False,CCCCCC[n+]1ccn(C)c1.[Cl-],No changes
QbJzZ,298.15,101.0,999.7,Gomez et al. (2006a),Liquid,0.5925,ethanol,,,CCCCCC[n+]1ccn(C)c1.[Cl-],1-hexyl-3-methylimidazolium chloride,AAmzKp,CCO,ethanol,AAIsrh,CCCCCC[n+]1ccn(C)c1,[Cl-],2,0.4075,,,206,False,CCCCCC[n+]1ccn(C)c1.[Cl-],No changes
QbJzZ,298.15,101.0,972.7,Gomez et al. (2006a),Liquid,0.432,ethanol,,,CCCCCC[n+]1ccn(C)c1.[Cl-],1-hexyl-3-methylimidazolium chloride,AAmzKp,CCO,ethanol,AAIsrh,CCCCCC[n+]1ccn(C)c1,[Cl-],2,0.568,,,207,False,CCCCCC[n+]1ccn(C)c1.[Cl-],No changes
QbJzZ,298.15,101.0,940.5,Gomez et al. (2006a),Liquid,0.2956,ethanol,,,CCCCCC[n+]1ccn(C)c1.[Cl-],1-hexyl-3-methylimidazolium chloride,AAmzKp,CCO,ethanol,AAIsrh,CCCCCC[n+]1ccn(C)c1,[Cl-],2,0.7044,,,208,False,CCCCCC[n+]1ccn(C)c1.[Cl-],No changes
QbJzZ,298.15,101.0,909.7,Gomez et al. (2006a),Liquid,0.2045,ethanol,,,CCCCCC[n+]1ccn(C)c1.[Cl-],1-hexyl-3-methylimidazolium chloride,AAmzKp,CCO,ethanol,AAIsrh,CCCCCC[n+]1ccn(C)c1,[Cl-],2,0.7955,,,209,False,CCCCCC[n+]1ccn(C)c1.[Cl-],No changes
QbJzZ,298.15,101.0,857.5,Gomez et al. (2006a),Liquid,0.0969999999999999,ethanol,,,CCCCCC[n+]1ccn(C)c1.[Cl-],1-hexyl-3-methylimidazolium chloride,AAmzKp,CCO,ethanol,AAIsrh,CCCCCC[n+]1ccn(C)c1,[Cl-],2,0.903,,,210,False,CCCCCC[n+]1ccn(C)c1.[Cl-],No changes
QbJzZ,298.15,101.0,857.0,Gomez et al. (2006a),Liquid,0.0953,ethanol,,,CCCCCC[n+]1ccn(C)c1.[Cl-],1-hexyl-3-methylimidazolium chloride,AAmzKp,CCO,ethanol,AAIsrh,CCCCCC[n+]1ccn(C)c1,[Cl-],2,0.9047,,,211,False,CCCCCC[n+]1ccn(C)c1.[Cl-],No changes
QbJzZ,298.15,101.0,831.5,Gomez et al. (2006a),Liquid,0.0554999999999999,ethanol,,,CCCCCC[n+]1ccn(C)c1.[Cl-],1-hexyl-3-methylimidazolium chloride,AAmzKp,CCO,ethanol,AAIsrh,CCCCCC[n+]1ccn(C)c1,[Cl-],2,0.9445,,,212,False,CCCCCC[n+]1ccn(C)c1.[Cl-],No changes
QbJzZ,298.15,101.0,785.4,Gomez et al. (2006a),Liquid,0.0,ethanol,,,CCCCCC[n+]1ccn(C)c1.[Cl-],1-hexyl-3-methylimidazolium chloride,AAmzKp,CCO,ethanol,AAIsrh,CCCCCC[n+]1ccn(C)c1,[Cl-],2,1.0,,,213,False,CCCCCC[n+]1ccn(C)c1.[Cl-],No changes
GRBII,313.15,101.0,1451.2,Corderi et al. (2013),Liquid,0.0006855737843632,,0.006,ethanol,CCCn1cc[n+](C)c1.O=S(=O)([N-]S(=O)(=O)C(F)(F)F)C(F)(F)F,1-methyl-3-propylimidazolium bis[(trifluoromethyl)sulfonyl]imide,ABZxGx,CCO,ethanol,AAIsrh,CCCn1cc[n+](C)c1,O=S(=O)([N-]S(=O)(=O)C(F)(F)F)C(F)(F)F,2,,405.342,46.069,214,False,CCCn1cc[n+](C)c1.O=S(=O)([N-]S(=O)(=O)C(F)(F)F)C(F)(F)F,No changes
GRBII,313.15,101.0,1438.0,Corderi et al. (2013),Liquid,0.0018446340005738,,0.016,ethanol,CCCn1cc[n+](C)c1.O=S(=O)([N-]S(=O)(=O)C(F)(F)F)C(F)(F)F,1-methyl-3-propylimidazolium bis[(trifluoromethyl)sulfonyl]imide,ABZxGx,CCO,ethanol,AAIsrh,CCCn1cc[n+](C)c1,O=S(=O)([N-]S(=O)(=O)C(F)(F)F)C(F)(F)F,2,,405.342,46.069,215,False,CCCn1cc[n+](C)c1.O=S(=O)([N-]S(=O)(=O)C(F)(F)F)C(F)(F)F,No changes
GRBII,313.15,101.0,1417.4,Corderi et al. (2013),Liquid,0.0038636115002122,,0.033,ethanol,CCCn1cc[n+](C)c1.O=S(=O)([N-]S(=O)(=O)C(F)(F)F)C(F)(F)F,1-methyl-3-propylimidazolium bis[(trifluoromethyl)sulfonyl]imide,ABZxGx,CCO,ethanol,AAIsrh,CCCn1cc[n+](C)c1,O=S(=O)([N-]S(=O)(=O)C(F)(F)F)C(F)(F)F,2,,405.342,46.069,216,False,CCCn1cc[n+](C)c1.O=S(=O)([N-]S(=O)(=O)C(F)(F)F)C(F)(F)F,No changes
GRBII,313.15,101.0,1390.0,Corderi et al. (2013),Liquid,0.0066970713813987,,0.056,ethanol,CCCn1cc[n+](C)c1.O=S(=O)([N-]S(=O)(=O)C(F)(F)F)C(F)(F)F,1-methyl-3-propylimidazolium bis[(trifluoromethyl)sulfonyl]imide,ABZxGx,CCO,ethanol,AAIsrh,CCCn1cc[n+](C)c1,O=S(=O)([N-]S(=O)(=O)C(F)(F)F)C(F)(F)F,2,,405.342,46.069,217,False,CCCn1cc[n+](C)c1.O=S(=O)([N-]S(=O)(=O)C(F)(F)F)C(F)(F)F,No changes
GRBII,313.15,101.0,1355.8,Corderi et al. (2013),Liquid,0.0107141433956942,,0.087,ethanol,CCCn1cc[n+](C)c1.O=S(=O)([N-]S(=O)(=O)C(F)(F)F)C(F)(F)F,1-methyl-3-propylimidazolium bis[(trifluoromethyl)sulfonyl]imide,ABZxGx,CCO,ethanol,AAIsrh,CCCn1cc[n+](C)c1,O=S(=O)([N-]S(=O)(=O)C(F)(F)F)C(F)(F)F,2,,405.342,46.069,218,False,CCCn1cc[n+](C)c1.O=S(=O)([N-]S(=O)(=O)C(F)(F)F)C(F)(F)F,No changes
GRBII,313.15,101.0,1312.1,Corderi et al. (2013),Liquid,0.0164094866665797,,0.128,ethanol,CCCn1cc[n+](C)c1.O=S(=O)([N-]S(=O)(=O)C(F)(F)F)C(F)(F)F,1-methyl-3-propylimidazolium bis[(trifluoromethyl)sulfonyl]imide,ABZxGx,CCO,ethanol,AAIsrh,CCCn1cc[n+](C)c1,O=S(=O)([N-]S(=O)(=O)C(F)(F)F)C(F)(F)F,2,,405.342,46.069,219,False,CCCn1cc[n+](C)c1.O=S(=O)([N-]S(=O)(=O)C(F)(F)F)C(F)(F)F,No changes
GRBII,313.15,101.0,1265.8,Corderi et al. (2013),Liquid,0.0233819710052225,,0.174,ethanol,CCCn1cc[n+](C)c1.O=S(=O)([N-]S(=O)(=O)C(F)(F)F)C(F)(F)F,1-methyl-3-propylimidazolium bis[(trifluoromethyl)sulfonyl]imide,ABZxGx,CCO,ethanol,AAIsrh,CCCn1cc[n+](C)c1,O=S(=O)([N-]S(=O)(=O)C(F)(F)F)C(F)(F)F,2,,405.342,46.069,220,False,CCCn1cc[n+](C)c1.O=S(=O)([N-]S(=O)(=O)C(F)(F)F)C(F)(F)F,No changes
GRBII,313.15,101.0,1194.3,Corderi et al. (2013),Liquid,0.0372557245013572,,0.254,ethanol,CCCn1cc[n+](C)c1.O=S(=O)([N-]S(=O)(=O)C(F)(F)F)C(F)(F)F,1-methyl-3-propylimidazolium bis[(trifluoromethyl)sulfonyl]imide,ABZxGx,CCO,ethanol,AAIsrh,CCCn1cc[n+](C)c1,O=S(=O)([N-]S(=O)(=O)C(F)(F)F)C(F)(F)F,2,,405.342,46.069,221,False,CCCn1cc[n+](C)c1.O=S(=O)([N-]S(=O)(=O)C(F)(F)F)C(F)(F)F,No changes
GRBII,313.15,101.0,1101.4,Corderi et al. (2013),Liquid,0.0630774553303366,,0.372,ethanol,CCCn1cc[n+](C)c1.O=S(=O)([N-]S(=O)(=O)C(F)(F)F)C(F)(F)F,1-methyl-3-propylimidazolium bis[(trifluoromethyl)sulfonyl]imide,ABZxGx,CCO,ethanol,AAIsrh,CCCn1cc[n+](C)c1,O=S(=O)([N-]S(=O)(=O)C(F)(F)F)C(F)(F)F,2,,405.342,46.069,222,False,CCCn1cc[n+](C)c1.O=S(=O)([N-]S(=O)(=O)C(F)(F)F)C(F)(F)F,No changes
GRBII,313.15,101.0,984.1,Corderi et al. (2013),Liquid,0.1224018881779061,,0.551,ethanol,CCCn1cc[n+](C)c1.O=S(=O)([N-]S(=O)(=O)C(F)(F)F)C(F)(F)F,1-methyl-3-propylimidazolium bis[(trifluoromethyl)sulfonyl]imide,ABZxGx,CCO,ethanol,AAIsrh,CCCn1cc[n+](C)c1,O=S(=O)([N-]S(=O)(=O)C(F)(F)F)C(F)(F)F,2,,405.342,46.069,223,False,CCCn1cc[n+](C)c1.O=S(=O)([N-]S(=O)(=O)C(F)(F)F)C(F)(F)F,No changes
XDoZt,313.15,101.0,1270.2,Corderi et al. (2013),Liquid,0.0111870359872443,,0.099,ethanol,CCCCCC[n+]1ccn(C)c1.O=S(=O)([N-]S(=O)(=O)C(F)(F)F)C(F)(F)F,1-hexyl-3-methylimidazolium bis[(trifluoromethyl)sulfonyl]imide,ABiCtA,CCO,ethanol,AAIsrh,CCCCCC[n+]1ccn(C)c1,O=S(=O)([N-]S(=O)(=O)C(F)(F)F)C(F)(F)F,2,,447.423,46.069,224,False,CCCCCC[n+]1ccn(C)c1.O=S(=O)([N-]S(=O)(=O)C(F)(F)F)C(F)(F)F,No changes
XDoZt,313.15,101.0,1161.1,Corderi et al. (2013),Liquid,0.0300017823562831,,0.231,ethanol,CCCCCC[n+]1ccn(C)c1.O=S(=O)([N-]S(=O)(=O)C(F)(F)F)C(F)(F)F,1-hexyl-3-methylimidazolium bis[(trifluoromethyl)sulfonyl]imide,ABiCtA,CCO,ethanol,AAIsrh,CCCCCC[n+]1ccn(C)c1,O=S(=O)([N-]S(=O)(=O)C(F)(F)F)C(F)(F)F,2,,447.423,46.069,225,False,CCCCCC[n+]1ccn(C)c1.O=S(=O)([N-]S(=O)(=O)C(F)(F)F)C(F)(F)F,No changes
XDoZt,313.15,101.0,1092.3,Corderi et al. (2013),Liquid,0.0478519387274554,,0.328,ethanol,CCCCCC[n+]1ccn(C)c1.O=S(=O)([N-]S(=O)(=O)C(F)(F)F)C(F)(F)F,1-hexyl-3-methylimidazolium bis[(trifluoromethyl)sulfonyl]imide,ABiCtA,CCO,ethanol,AAIsrh,CCCCCC[n+]1ccn(C)c1,O=S(=O)([N-]S(=O)(=O)C(F)(F)F)C(F)(F)F,2,,447.423,46.069,226,False,CCCCCC[n+]1ccn(C)c1.O=S(=O)([N-]S(=O)(=O)C(F)(F)F)C(F)(F)F,No changes
XDoZt,313.15,101.0,1030.7,Corderi et al. (2013),Liquid,0.0709917310636461,,0.426,ethanol,CCCCCC[n+]1ccn(C)c1.O=S(=O)([N-]S(=O)(=O)C(F)(F)F)C(F)(F)F,1-hexyl-3-methylimidazolium bis[(trifluoromethyl)sulfonyl]imide,ABiCtA,CCO,ethanol,AAIsrh,CCCCCC[n+]1ccn(C)c1,O=S(=O)([N-]S(=O)(=O)C(F)(F)F)C(F)(F)F,2,,447.423,46.069,227,False,CCCCCC[n+]1ccn(C)c1.O=S(=O)([N-]S(=O)(=O)C(F)(F)F)C(F)(F)F,No changes
XDoZt,313.15,101.0,973.4,Corderi et al. (2013),Liquid,0.103657179806683,,0.529,ethanol,CCCCCC[n+]1ccn(C)c1.O=S(=O)([N-]S(=O)(=O)C(F)(F)F)C(F)(F)F,1-hexyl-3-methylimidazolium bis[(trifluoromethyl)sulfonyl]imide,ABiCtA,CCO,ethanol,AAIsrh,CCCCCC[n+]1ccn(C)c1,O=S(=O)([N-]S(=O)(=O)C(F)(F)F)C(F)(F)F,2,,447.423,46.069,228,False,CCCCCC[n+]1ccn(C)c1.O=S(=O)([N-]S(=O)(=O)C(F)(F)F)C(F)(F)F,No changes
XDoZt,313.15,101.0,914.9,Corderi et al. (2013),Liquid,0.1581761380208154,,0.646,ethanol,CCCCCC[n+]1ccn(C)c1.O=S(=O)([N-]S(=O)(=O)C(F)(F)F)C(F)(F)F,1-hexyl-3-methylimidazolium bis[(trifluoromethyl)sulfonyl]imide,ABiCtA,CCO,ethanol,AAIsrh,CCCCCC[n+]1ccn(C)c1,O=S(=O)([N-]S(=O)(=O)C(F)(F)F)C(F)(F)F,2,,447.423,46.069,229,False,CCCCCC[n+]1ccn(C)c1.O=S(=O)([N-]S(=O)(=O)C(F)(F)F)C(F)(F)F,No changes
XDoZt,313.15,101.0,873.0,Corderi et al. (2013),Liquid,0.2266375767645271,,0.74,ethanol,CCCCCC[n+]1ccn(C)c1.O=S(=O)([N-]S(=O)(=O)C(F)(F)F)C(F)(F)F,1-hexyl-3-methylimidazolium bis[(trifluoromethyl)sulfonyl]imide,ABiCtA,CCO,ethanol,AAIsrh,CCCCCC[n+]1ccn(C)c1,O=S(=O)([N-]S(=O)(=O)C(F)(F)F)C(F)(F)F,2,,447.423,46.069,230,False,CCCCCC[n+]1ccn(C)c1.O=S(=O)([N-]S(=O)(=O)C(F)(F)F)C(F)(F)F,No changes
XDoZt,313.15,101.0,808.2,Corderi et al. (2013),Liquid,0.483761019393181,,0.901,ethanol,CCCCCC[n+]1ccn(C)c1.O=S(=O)([N-]S(=O)(=O)C(F)(F)F)C(F)(F)F,1-hexyl-3-methylimidazolium bis[(trifluoromethyl)sulfonyl]imide,ABiCtA,CCO,ethanol,AAIsrh,CCCCCC[n+]1ccn(C)c1,O=S(=O)([N-]S(=O)(=O)C(F)(F)F)C(F)(F)F,2,,447.423,46.069,231,False,CCCCCC[n+]1ccn(C)c1.O=S(=O)([N-]S(=O)(=O)C(F)(F)F)C(F)(F)F,No changes
gDqHz,288.15,100.0,793.817,Liu et al. (2020c),Liquid,0.0,1-ethyl-3-(2-methoxyethyl)imidazolium bis(trifluoromethylsulfonyl)imide,,,CC[n+]1ccn(CCOC)c1.O=S(=O)([N-]S(=O)(=O)C(F)(F)F)C(F)(F)F,1-ethyl-3-(2-methoxyethyl)imidazolium bis(trifluoromethylsulfonyl)imide,ABflJV,CCO,ethanol,AAIsrh,CC[n+]1ccn(CCOC)c1,O=S(=O)([N-]S(=O)(=O)C(F)(F)F)C(F)(F)F,2,,,,232,False,CC[n+]1ccn(CCOC)c1.O=S(=O)([N-]S(=O)(=O)C(F)(F)F)C(F)(F)F,No changes
gDqHz,288.15,100.0,1044.2,Liu et al. (2020c),Liquid,0.1,1-ethyl-3-(2-methoxyethyl)imidazolium bis(trifluoromethylsulfonyl)imide,,,CC[n+]1ccn(CCOC)c1.O=S(=O)([N-]S(=O)(=O)C(F)(F)F)C(F)(F)F,1-ethyl-3-(2-methoxyethyl)imidazolium bis(trifluoromethylsulfonyl)imide,ABflJV,CCO,ethanol,AAIsrh,CC[n+]1ccn(CCOC)c1,O=S(=O)([N-]S(=O)(=O)C(F)(F)F)C(F)(F)F,2,,,,233,False,CC[n+]1ccn(CCOC)c1.O=S(=O)([N-]S(=O)(=O)C(F)(F)F)C(F)(F)F,No changes
gDqHz,288.15,100.0,1178.6,Liu et al. (2020c),Liquid,0.1947,1-ethyl-3-(2-methoxyethyl)imidazolium bis(trifluoromethylsulfonyl)imide,,,CC[n+]1ccn(CCOC)c1.O=S(=O)([N-]S(=O)(=O)C(F)(F)F)C(F)(F)F,1-ethyl-3-(2-methoxyethyl)imidazolium bis(trifluoromethylsulfonyl)imide,ABflJV,CCO,ethanol,AAIsrh,CC[n+]1ccn(CCOC)c1,O=S(=O)([N-]S(=O)(=O)C(F)(F)F)C(F)(F)F,2,,,,234,False,CC[n+]1ccn(CCOC)c1.O=S(=O)([N-]S(=O)(=O)C(F)(F)F)C(F)(F)F,No changes
gDqHz,288.15,100.0,1264.6,Liu et al. (2020c),Liquid,0.2995,1-ethyl-3-(2-methoxyethyl)imidazolium bis(trifluoromethylsulfonyl)imide,,,CC[n+]1ccn(CCOC)c1.O=S(=O)([N-]S(=O)(=O)C(F)(F)F)C(F)(F)F,1-ethyl-3-(2-methoxyethyl)imidazolium bis(trifluoromethylsulfonyl)imide,ABflJV,CCO,ethanol,AAIsrh,CC[n+]1ccn(CCOC)c1,O=S(=O)([N-]S(=O)(=O)C(F)(F)F)C(F)(F)F,2,,,,235,False,CC[n+]1ccn(CCOC)c1.O=S(=O)([N-]S(=O)(=O)C(F)(F)F)C(F)(F)F,No changes
gDqHz,288.15,100.0,1322.9,Liu et al. (2020c),Liquid,0.4,1-ethyl-3-(2-methoxyethyl)imidazolium bis(trifluoromethylsulfonyl)imide,,,CC[n+]1ccn(CCOC)c1.O=S(=O)([N-]S(=O)(=O)C(F)(F)F)C(F)(F)F,1-ethyl-3-(2-methoxyethyl)imidazolium bis(trifluoromethylsulfonyl)imide,ABflJV,CCO,ethanol,AAIsrh,CC[n+]1ccn(CCOC)c1,O=S(=O)([N-]S(=O)(=O)C(F)(F)F)C(F)(F)F,2,,,,236,False,CC[n+]1ccn(CCOC)c1.O=S(=O)([N-]S(=O)(=O)C(F)(F)F)C(F)(F)F,No changes
gDqHz,288.15,100.0,1368.0,Liu et al. (2020c),Liquid,0.5002,1-ethyl-3-(2-methoxyethyl)imidazolium bis(trifluoromethylsulfonyl)imide,,,CC[n+]1ccn(CCOC)c1.O=S(=O)([N-]S(=O)(=O)C(F)(F)F)C(F)(F)F,1-ethyl-3-(2-methoxyethyl)imidazolium bis(trifluoromethylsulfonyl)imide,ABflJV,CCO,ethanol,AAIsrh,CC[n+]1ccn(CCOC)c1,O=S(=O)([N-]S(=O)(=O)C(F)(F)F)C(F)(F)F,2,,,,237,False,CC[n+]1ccn(CCOC)c1.O=S(=O)([N-]S(=O)(=O)C(F)(F)F)C(F)(F)F,No changes
gDqHz,288.15,100.0,1400.0,Liu et al. (2020c),Liquid,0.6001,1-ethyl-3-(2-methoxyethyl)imidazolium bis(trifluoromethylsulfonyl)imide,,,CC[n+]1ccn(CCOC)c1.O=S(=O)([N-]S(=O)(=O)C(F)(F)F)C(F)(F)F,1-ethyl-3-(2-methoxyethyl)imidazolium bis(trifluoromethylsulfonyl)imide,ABflJV,CCO,ethanol,AAIsrh,CC[n+]1ccn(CCOC)c1,O=S(=O)([N-]S(=O)(=O)C(F)(F)F)C(F)(F)F,2,,,,238,False,CC[n+]1ccn(CCOC)c1.O=S(=O)([N-]S(=O)(=O)C(F)(F)F)C(F)(F)F,No changes
gDqHz,288.15,100.0,1424.7,Liu et al. (2020c),Liquid,0.6999,1-ethyl-3-(2-methoxyethyl)imidazolium bis(trifluoromethylsulfonyl)imide,,,CC[n+]1ccn(CCOC)c1.O=S(=O)([N-]S(=O)(=O)C(F)(F)F)C(F)(F)F,1-ethyl-3-(2-methoxyethyl)imidazolium bis(trifluoromethylsulfonyl)imide,ABflJV,CCO,ethanol,AAIsrh,CC[n+]1ccn(CCOC)c1,O=S(=O)([N-]S(=O)(=O)C(F)(F)F)C(F)(F)F,2,,,,239,False,CC[n+]1ccn(CCOC)c1.O=S(=O)([N-]S(=O)(=O)C(F)(F)F)C(F)(F)F,No changes
gDqHz,288.15,100.0,1443.83,Liu et al. (2020c),Liquid,0.8,1-ethyl-3-(2-methoxyethyl)imidazolium bis(trifluoromethylsulfonyl)imide,,,CC[n+]1ccn(CCOC)c1.O=S(=O)([N-]S(=O)(=O)C(F)(F)F)C(F)(F)F,1-ethyl-3-(2-methoxyethyl)imidazolium bis(trifluoromethylsulfonyl)imide,ABflJV,CCO,ethanol,AAIsrh,CC[n+]1ccn(CCOC)c1,O=S(=O)([N-]S(=O)(=O)C(F)(F)F)C(F)(F)F,2,,,,240,False,CC[n+]1ccn(CCOC)c1.O=S(=O)([N-]S(=O)(=O)C(F)(F)F)C(F)(F)F,No changes
gDqHz,288.15,100.0,1459.45,Liu et al. (2020c),Liquid,0.9,1-ethyl-3-(2-methoxyethyl)imidazolium bis(trifluoromethylsulfonyl)imide,,,CC[n+]1ccn(CCOC)c1.O=S(=O)([N-]S(=O)(=O)C(F)(F)F)C(F)(F)F,1-ethyl-3-(2-methoxyethyl)imidazolium bis(trifluoromethylsulfonyl)imide,ABflJV,CCO,ethanol,AAIsrh,CC[n+]1ccn(CCOC)c1,O=S(=O)([N-]S(=O)(=O)C(F)(F)F)C(F)(F)F,2,,,,241,False,CC[n+]1ccn(CCOC)c1.O=S(=O)([N-]S(=O)(=O)C(F)(F)F)C(F)(F)F,No changes
gDqHz,288.15,100.0,1471.78,Liu et al. (2020c),Liquid,1.0,1-ethyl-3-(2-methoxyethyl)imidazolium bis(trifluoromethylsulfonyl)imide,,,CC[n+]1ccn(CCOC)c1.O=S(=O)([N-]S(=O)(=O)C(F)(F)F)C(F)(F)F,1-ethyl-3-(2-methoxyethyl)imidazolium bis(trifluoromethylsulfonyl)imide,ABflJV,CCO,ethanol,AAIsrh,CC[n+]1ccn(CCOC)c1,O=S(=O)([N-]S(=O)(=O)C(F)(F)F)C(F)(F)F,2,,,,242,False,CC[n+]1ccn(CCOC)c1.O=S(=O)([N-]S(=O)(=O)C(F)(F)F)C(F)(F)F,No changes
gDqHz,293.15,100.0,789.563,Liu et al. (2020c),Liquid,0.0,1-ethyl-3-(2-methoxyethyl)imidazolium bis(trifluoromethylsulfonyl)imide,,,CC[n+]1ccn(CCOC)c1.O=S(=O)([N-]S(=O)(=O)C(F)(F)F)C(F)(F)F,1-ethyl-3-(2-methoxyethyl)imidazolium bis(trifluoromethylsulfonyl)imide,ABflJV,CCO,ethanol,AAIsrh,CC[n+]1ccn(CCOC)c1,O=S(=O)([N-]S(=O)(=O)C(F)(F)F)C(F)(F)F,2,,,,243,False,CC[n+]1ccn(CCOC)c1.O=S(=O)([N-]S(=O)(=O)C(F)(F)F)C(F)(F)F,No changes
gDqHz,293.15,100.0,1039.5,Liu et al. (2020c),Liquid,0.1,1-ethyl-3-(2-methoxyethyl)imidazolium bis(trifluoromethylsulfonyl)imide,,,CC[n+]1ccn(CCOC)c1.O=S(=O)([N-]S(=O)(=O)C(F)(F)F)C(F)(F)F,1-ethyl-3-(2-methoxyethyl)imidazolium bis(trifluoromethylsulfonyl)imide,ABflJV,CCO,ethanol,AAIsrh,CC[n+]1ccn(CCOC)c1,O=S(=O)([N-]S(=O)(=O)C(F)(F)F)C(F)(F)F,2,,,,244,False,CC[n+]1ccn(CCOC)c1.O=S(=O)([N-]S(=O)(=O)C(F)(F)F)C(F)(F)F,No changes
gDqHz,293.15,100.0,1173.6,Liu et al. (2020c),Liquid,0.1947,1-ethyl-3-(2-methoxyethyl)imidazolium bis(trifluoromethylsulfonyl)imide,,,CC[n+]1ccn(CCOC)c1.O=S(=O)([N-]S(=O)(=O)C(F)(F)F)C(F)(F)F,1-ethyl-3-(2-methoxyethyl)imidazolium bis(trifluoromethylsulfonyl)imide,ABflJV,CCO,ethanol,AAIsrh,CC[n+]1ccn(CCOC)c1,O=S(=O)([N-]S(=O)(=O)C(F)(F)F)C(F)(F)F,2,,,,245,False,CC[n+]1ccn(CCOC)c1.O=S(=O)([N-]S(=O)(=O)C(F)(F)F)C(F)(F)F,No changes
gDqHz,293.15,100.0,1259.5,Liu et al. (2020c),Liquid,0.2995,1-ethyl-3-(2-methoxyethyl)imidazolium bis(trifluoromethylsulfonyl)imide,,,CC[n+]1ccn(CCOC)c1.O=S(=O)([N-]S(=O)(=O)C(F)(F)F)C(F)(F)F,1-ethyl-3-(2-methoxyethyl)imidazolium bis(trifluoromethylsulfonyl)imide,ABflJV,CCO,ethanol,AAIsrh,CC[n+]1ccn(CCOC)c1,O=S(=O)([N-]S(=O)(=O)C(F)(F)F)C(F)(F)F,2,,,,246,False,CC[n+]1ccn(CCOC)c1.O=S(=O)([N-]S(=O)(=O)C(F)(F)F)C(F)(F)F,No changes
gDqHz,293.15,100.0,1317.8,Liu et al. (2020c),Liquid,0.4,1-ethyl-3-(2-methoxyethyl)imidazolium bis(trifluoromethylsulfonyl)imide,,,CC[n+]1ccn(CCOC)c1.O=S(=O)([N-]S(=O)(=O)C(F)(F)F)C(F)(F)F,1-ethyl-3-(2-methoxyethyl)imidazolium bis(trifluoromethylsulfonyl)imide,ABflJV,CCO,ethanol,AAIsrh,CC[n+]1ccn(CCOC)c1,O=S(=O)([N-]S(=O)(=O)C(F)(F)F)C(F)(F)F,2,,,,247,False,CC[n+]1ccn(CCOC)c1.O=S(=O)([N-]S(=O)(=O)C(F)(F)F)C(F)(F)F,No changes
gDqHz,293.15,100.0,1362.9,Liu et al. (2020c),Liquid,0.5002,1-ethyl-3-(2-methoxyethyl)imidazolium bis(trifluoromethylsulfonyl)imide,,,CC[n+]1ccn(CCOC)c1.O=S(=O)([N-]S(=O)(=O)C(F)(F)F)C(F)(F)F,1-ethyl-3-(2-methoxyethyl)imidazolium bis(trifluoromethylsulfonyl)imide,ABflJV,CCO,ethanol,AAIsrh,CC[n+]1ccn(CCOC)c1,O=S(=O)([N-]S(=O)(=O)C(F)(F)F)C(F)(F)F,2,,,,248,False,CC[n+]1ccn(CCOC)c1.O=S(=O)([N-]S(=O)(=O)C(F)(F)F)C(F)(F)F,No changes
gDqHz,293.15,100.0,1394.9,Liu et al. (2020c),Liquid,0.6001,1-ethyl-3-(2-methoxyethyl)imidazolium bis(trifluoromethylsulfonyl)imide,,,CC[n+]1ccn(CCOC)c1.O=S(=O)([N-]S(=O)(=O)C(F)(F)F)C(F)(F)F,1-ethyl-3-(2-methoxyethyl)imidazolium bis(trifluoromethylsulfonyl)imide,ABflJV,CCO,ethanol,AAIsrh,CC[n+]1ccn(CCOC)c1,O=S(=O)([N-]S(=O)(=O)C(F)(F)F)C(F)(F)F,2,,,,249,False,CC[n+]1ccn(CCOC)c1.O=S(=O)([N-]S(=O)(=O)C(F)(F)F)C(F)(F)F,No changes
gDqHz,293.15,100.0,1419.6,Liu et al. (2020c),Liquid,0.6999,1-ethyl-3-(2-methoxyethyl)imidazolium bis(trifluoromethylsulfonyl)imide,,,CC[n+]1ccn(CCOC)c1.O=S(=O)([N-]S(=O)(=O)C(F)(F)F)C(F)(F)F,1-ethyl-3-(2-methoxyethyl)imidazolium bis(trifluoromethylsulfonyl)imide,ABflJV,CCO,ethanol,AAIsrh,CC[n+]1ccn(CCOC)c1,O=S(=O)([N-]S(=O)(=O)C(F)(F)F)C(F)(F)F,2,,,,250,False,CC[n+]1ccn(CCOC)c1.O=S(=O)([N-]S(=O)(=O)C(F)(F)F)C(F)(F)F,No changes
gDqHz,293.15,100.0,1438.75,Liu et al. (2020c),Liquid,0.8,1-ethyl-3-(2-methoxyethyl)imidazolium bis(trifluoromethylsulfonyl)imide,,,CC[n+]1ccn(CCOC)c1.O=S(=O)([N-]S(=O)(=O)C(F)(F)F)C(F)(F)F,1-ethyl-3-(2-methoxyethyl)imidazolium bis(trifluoromethylsulfonyl)imide,ABflJV,CCO,ethanol,AAIsrh,CC[n+]1ccn(CCOC)c1,O=S(=O)([N-]S(=O)(=O)C(F)(F)F)C(F)(F)F,2,,,,251,False,CC[n+]1ccn(CCOC)c1.O=S(=O)([N-]S(=O)(=O)C(F)(F)F)C(F)(F)F,No changes
gDqHz,293.15,100.0,1454.38,Liu et al. (2020c),Liquid,0.9,1-ethyl-3-(2-methoxyethyl)imidazolium bis(trifluoromethylsulfonyl)imide,,,CC[n+]1ccn(CCOC)c1.O=S(=O)([N-]S(=O)(=O)C(F)(F)F)C(F)(F)F,1-ethyl-3-(2-methoxyethyl)imidazolium bis(trifluoromethylsulfonyl)imide,ABflJV,CCO,ethanol,AAIsrh,CC[n+]1ccn(CCOC)c1,O=S(=O)([N-]S(=O)(=O)C(F)(F)F)C(F)(F)F,2,,,,252,False,CC[n+]1ccn(CCOC)c1.O=S(=O)([N-]S(=O)(=O)C(F)(F)F)C(F)(F)F,No changes
gDqHz,293.15,100.0,1466.72,Liu et al. (2020c),Liquid,1.0,1-ethyl-3-(2-methoxyethyl)imidazolium bis(trifluoromethylsulfonyl)imide,,,CC[n+]1ccn(CCOC)c1.O=S(=O)([N-]S(=O)(=O)C(F)(F)F)C(F)(F)F,1-ethyl-3-(2-methoxyethyl)imidazolium bis(trifluoromethylsulfonyl)imide,ABflJV,CCO,ethanol,AAIsrh,CC[n+]1ccn(CCOC)c1,O=S(=O)([N-]S(=O)(=O)C(F)(F)F)C(F)(F)F,2,,,,253,False,CC[n+]1ccn(CCOC)c1.O=S(=O)([N-]S(=O)(=O)C(F)(F)F)C(F)(F)F,No changes