setid,Temperature (K),Pressure (kPa),Density (kg/m3),reference,phases,Mole fraction,Mole fraction of compound name,Weight fraction,Weight fraction of compound name,IL_SMILES,IL_name,IL_ID,Solvent_SMILES,Solvent_name,Solvent_ID,IL_cation_SMILES,IL_anion_SMILES,IL_component_number,Mole fraction of solvent,IL_MW,Solvent_MW,Record_ID,Contains_Metal,Standardized_IL_SMILES,Changes
Abmnd,328.15,100.0,948.0,Krolikowska et al. (2021b),Liquid,0.1523,1-(2-hydroxyethyl)-1-methylpyrrolidinium dimethyl phosphate,,,C[N+]1(CCO)CCCC1.COP(=O)([O-])OC,1-(2-hydroxyethyl)-1-methylpyrrolidinium dimethyl phosphate,AAxEby,CCO,ethanol,AAIsrh,C[N+]1(CCO)CCCC1,COP(=O)([O-])OC,2,,,,2490,False,C[N+]1(CCO)CCCC1.COP(=O)([O-])OC,No changes
Abmnd,328.15,100.0,991.0,Krolikowska et al. (2021b),Liquid,0.2079,1-(2-hydroxyethyl)-1-methylpyrrolidinium dimethyl phosphate,,,C[N+]1(CCO)CCCC1.COP(=O)([O-])OC,1-(2-hydroxyethyl)-1-methylpyrrolidinium dimethyl phosphate,AAxEby,CCO,ethanol,AAIsrh,C[N+]1(CCO)CCCC1,COP(=O)([O-])OC,2,,,,2491,False,C[N+]1(CCO)CCCC1.COP(=O)([O-])OC,No changes
Abmnd,328.15,100.0,1020.0,Krolikowska et al. (2021b),Liquid,0.2537,1-(2-hydroxyethyl)-1-methylpyrrolidinium dimethyl phosphate,,,C[N+]1(CCO)CCCC1.COP(=O)([O-])OC,1-(2-hydroxyethyl)-1-methylpyrrolidinium dimethyl phosphate,AAxEby,CCO,ethanol,AAIsrh,C[N+]1(CCO)CCCC1,COP(=O)([O-])OC,2,,,,2492,False,C[N+]1(CCO)CCCC1.COP(=O)([O-])OC,No changes
Abmnd,328.15,100.0,1049.0,Krolikowska et al. (2021b),Liquid,0.3084,1-(2-hydroxyethyl)-1-methylpyrrolidinium dimethyl phosphate,,,C[N+]1(CCO)CCCC1.COP(=O)([O-])OC,1-(2-hydroxyethyl)-1-methylpyrrolidinium dimethyl phosphate,AAxEby,CCO,ethanol,AAIsrh,C[N+]1(CCO)CCCC1,COP(=O)([O-])OC,2,,,,2493,False,C[N+]1(CCO)CCCC1.COP(=O)([O-])OC,No changes
Abmnd,328.15,100.0,1090.0,Krolikowska et al. (2021b),Liquid,0.4033,1-(2-hydroxyethyl)-1-methylpyrrolidinium dimethyl phosphate,,,C[N+]1(CCO)CCCC1.COP(=O)([O-])OC,1-(2-hydroxyethyl)-1-methylpyrrolidinium dimethyl phosphate,AAxEby,CCO,ethanol,AAIsrh,C[N+]1(CCO)CCCC1,COP(=O)([O-])OC,2,,,,2494,False,C[N+]1(CCO)CCCC1.COP(=O)([O-])OC,No changes
Abmnd,328.15,100.0,1124.0,Krolikowska et al. (2021b),Liquid,0.5077,1-(2-hydroxyethyl)-1-methylpyrrolidinium dimethyl phosphate,,,C[N+]1(CCO)CCCC1.COP(=O)([O-])OC,1-(2-hydroxyethyl)-1-methylpyrrolidinium dimethyl phosphate,AAxEby,CCO,ethanol,AAIsrh,C[N+]1(CCO)CCCC1,COP(=O)([O-])OC,2,,,,2495,False,C[N+]1(CCO)CCCC1.COP(=O)([O-])OC,No changes
Abmnd,328.15,100.0,1149.0,Krolikowska et al. (2021b),Liquid,0.6042,1-(2-hydroxyethyl)-1-methylpyrrolidinium dimethyl phosphate,,,C[N+]1(CCO)CCCC1.COP(=O)([O-])OC,1-(2-hydroxyethyl)-1-methylpyrrolidinium dimethyl phosphate,AAxEby,CCO,ethanol,AAIsrh,C[N+]1(CCO)CCCC1,COP(=O)([O-])OC,2,,,,2496,False,C[N+]1(CCO)CCCC1.COP(=O)([O-])OC,No changes
Abmnd,328.15,100.0,1171.0,Krolikowska et al. (2021b),Liquid,0.7053,1-(2-hydroxyethyl)-1-methylpyrrolidinium dimethyl phosphate,,,C[N+]1(CCO)CCCC1.COP(=O)([O-])OC,1-(2-hydroxyethyl)-1-methylpyrrolidinium dimethyl phosphate,AAxEby,CCO,ethanol,AAIsrh,C[N+]1(CCO)CCCC1,COP(=O)([O-])OC,2,,,,2497,False,C[N+]1(CCO)CCCC1.COP(=O)([O-])OC,No changes
Abmnd,328.15,100.0,1189.0,Krolikowska et al. (2021b),Liquid,0.8055,1-(2-hydroxyethyl)-1-methylpyrrolidinium dimethyl phosphate,,,C[N+]1(CCO)CCCC1.COP(=O)([O-])OC,1-(2-hydroxyethyl)-1-methylpyrrolidinium dimethyl phosphate,AAxEby,CCO,ethanol,AAIsrh,C[N+]1(CCO)CCCC1,COP(=O)([O-])OC,2,,,,2498,False,C[N+]1(CCO)CCCC1.COP(=O)([O-])OC,No changes
Abmnd,328.15,100.0,1204.0,Krolikowska et al. (2021b),Liquid,0.9053,1-(2-hydroxyethyl)-1-methylpyrrolidinium dimethyl phosphate,,,C[N+]1(CCO)CCCC1.COP(=O)([O-])OC,1-(2-hydroxyethyl)-1-methylpyrrolidinium dimethyl phosphate,AAxEby,CCO,ethanol,AAIsrh,C[N+]1(CCO)CCCC1,COP(=O)([O-])OC,2,,,,2499,False,C[N+]1(CCO)CCCC1.COP(=O)([O-])OC,No changes
Abmnd,328.15,100.0,1215.0,Krolikowska et al. (2021b),Liquid,1.0,1-(2-hydroxyethyl)-1-methylpyrrolidinium dimethyl phosphate,,,C[N+]1(CCO)CCCC1.COP(=O)([O-])OC,1-(2-hydroxyethyl)-1-methylpyrrolidinium dimethyl phosphate,AAxEby,CCO,ethanol,AAIsrh,C[N+]1(CCO)CCCC1,COP(=O)([O-])OC,2,,,,2500,False,C[N+]1(CCO)CCCC1.COP(=O)([O-])OC,No changes
Abmnd,333.15,100.0,754.0,Krolikowska et al. (2021b),Liquid,0.0,1-(2-hydroxyethyl)-1-methylpyrrolidinium dimethyl phosphate,,,C[N+]1(CCO)CCCC1.COP(=O)([O-])OC,1-(2-hydroxyethyl)-1-methylpyrrolidinium dimethyl phosphate,AAxEby,CCO,ethanol,AAIsrh,C[N+]1(CCO)CCCC1,COP(=O)([O-])OC,2,,,,2501,False,C[N+]1(CCO)CCCC1.COP(=O)([O-])OC,No changes
Abmnd,333.15,100.0,841.0,Krolikowska et al. (2021b),Liquid,0.0561,1-(2-hydroxyethyl)-1-methylpyrrolidinium dimethyl phosphate,,,C[N+]1(CCO)CCCC1.COP(=O)([O-])OC,1-(2-hydroxyethyl)-1-methylpyrrolidinium dimethyl phosphate,AAxEby,CCO,ethanol,AAIsrh,C[N+]1(CCO)CCCC1,COP(=O)([O-])OC,2,,,,2502,False,C[N+]1(CCO)CCCC1.COP(=O)([O-])OC,No changes
Abmnd,333.15,100.0,902.0,Krolikowska et al. (2021b),Liquid,0.1077,1-(2-hydroxyethyl)-1-methylpyrrolidinium dimethyl phosphate,,,C[N+]1(CCO)CCCC1.COP(=O)([O-])OC,1-(2-hydroxyethyl)-1-methylpyrrolidinium dimethyl phosphate,AAxEby,CCO,ethanol,AAIsrh,C[N+]1(CCO)CCCC1,COP(=O)([O-])OC,2,,,,2503,False,C[N+]1(CCO)CCCC1.COP(=O)([O-])OC,No changes
Abmnd,333.15,100.0,944.0,Krolikowska et al. (2021b),Liquid,0.1523,1-(2-hydroxyethyl)-1-methylpyrrolidinium dimethyl phosphate,,,C[N+]1(CCO)CCCC1.COP(=O)([O-])OC,1-(2-hydroxyethyl)-1-methylpyrrolidinium dimethyl phosphate,AAxEby,CCO,ethanol,AAIsrh,C[N+]1(CCO)CCCC1,COP(=O)([O-])OC,2,,,,2504,False,C[N+]1(CCO)CCCC1.COP(=O)([O-])OC,No changes
Abmnd,333.15,100.0,988.0,Krolikowska et al. (2021b),Liquid,0.2079,1-(2-hydroxyethyl)-1-methylpyrrolidinium dimethyl phosphate,,,C[N+]1(CCO)CCCC1.COP(=O)([O-])OC,1-(2-hydroxyethyl)-1-methylpyrrolidinium dimethyl phosphate,AAxEby,CCO,ethanol,AAIsrh,C[N+]1(CCO)CCCC1,COP(=O)([O-])OC,2,,,,2505,False,C[N+]1(CCO)CCCC1.COP(=O)([O-])OC,No changes
Abmnd,333.15,100.0,1017.0,Krolikowska et al. (2021b),Liquid,0.2537,1-(2-hydroxyethyl)-1-methylpyrrolidinium dimethyl phosphate,,,C[N+]1(CCO)CCCC1.COP(=O)([O-])OC,1-(2-hydroxyethyl)-1-methylpyrrolidinium dimethyl phosphate,AAxEby,CCO,ethanol,AAIsrh,C[N+]1(CCO)CCCC1,COP(=O)([O-])OC,2,,,,2506,False,C[N+]1(CCO)CCCC1.COP(=O)([O-])OC,No changes
Abmnd,333.15,100.0,1046.0,Krolikowska et al. (2021b),Liquid,0.3084,1-(2-hydroxyethyl)-1-methylpyrrolidinium dimethyl phosphate,,,C[N+]1(CCO)CCCC1.COP(=O)([O-])OC,1-(2-hydroxyethyl)-1-methylpyrrolidinium dimethyl phosphate,AAxEby,CCO,ethanol,AAIsrh,C[N+]1(CCO)CCCC1,COP(=O)([O-])OC,2,,,,2507,False,C[N+]1(CCO)CCCC1.COP(=O)([O-])OC,No changes
Abmnd,333.15,100.0,1086.0,Krolikowska et al. (2021b),Liquid,0.4033,1-(2-hydroxyethyl)-1-methylpyrrolidinium dimethyl phosphate,,,C[N+]1(CCO)CCCC1.COP(=O)([O-])OC,1-(2-hydroxyethyl)-1-methylpyrrolidinium dimethyl phosphate,AAxEby,CCO,ethanol,AAIsrh,C[N+]1(CCO)CCCC1,COP(=O)([O-])OC,2,,,,2508,False,C[N+]1(CCO)CCCC1.COP(=O)([O-])OC,No changes
Abmnd,333.15,100.0,1121.0,Krolikowska et al. (2021b),Liquid,0.5077,1-(2-hydroxyethyl)-1-methylpyrrolidinium dimethyl phosphate,,,C[N+]1(CCO)CCCC1.COP(=O)([O-])OC,1-(2-hydroxyethyl)-1-methylpyrrolidinium dimethyl phosphate,AAxEby,CCO,ethanol,AAIsrh,C[N+]1(CCO)CCCC1,COP(=O)([O-])OC,2,,,,2509,False,C[N+]1(CCO)CCCC1.COP(=O)([O-])OC,No changes
Abmnd,333.15,100.0,1146.0,Krolikowska et al. (2021b),Liquid,0.6042,1-(2-hydroxyethyl)-1-methylpyrrolidinium dimethyl phosphate,,,C[N+]1(CCO)CCCC1.COP(=O)([O-])OC,1-(2-hydroxyethyl)-1-methylpyrrolidinium dimethyl phosphate,AAxEby,CCO,ethanol,AAIsrh,C[N+]1(CCO)CCCC1,COP(=O)([O-])OC,2,,,,2510,False,C[N+]1(CCO)CCCC1.COP(=O)([O-])OC,No changes
Abmnd,333.15,100.0,1168.0,Krolikowska et al. (2021b),Liquid,0.7053,1-(2-hydroxyethyl)-1-methylpyrrolidinium dimethyl phosphate,,,C[N+]1(CCO)CCCC1.COP(=O)([O-])OC,1-(2-hydroxyethyl)-1-methylpyrrolidinium dimethyl phosphate,AAxEby,CCO,ethanol,AAIsrh,C[N+]1(CCO)CCCC1,COP(=O)([O-])OC,2,,,,2511,False,C[N+]1(CCO)CCCC1.COP(=O)([O-])OC,No changes
Abmnd,333.15,100.0,1186.0,Krolikowska et al. (2021b),Liquid,0.8055,1-(2-hydroxyethyl)-1-methylpyrrolidinium dimethyl phosphate,,,C[N+]1(CCO)CCCC1.COP(=O)([O-])OC,1-(2-hydroxyethyl)-1-methylpyrrolidinium dimethyl phosphate,AAxEby,CCO,ethanol,AAIsrh,C[N+]1(CCO)CCCC1,COP(=O)([O-])OC,2,,,,2512,False,C[N+]1(CCO)CCCC1.COP(=O)([O-])OC,No changes
Abmnd,333.15,100.0,1201.0,Krolikowska et al. (2021b),Liquid,0.9053,1-(2-hydroxyethyl)-1-methylpyrrolidinium dimethyl phosphate,,,C[N+]1(CCO)CCCC1.COP(=O)([O-])OC,1-(2-hydroxyethyl)-1-methylpyrrolidinium dimethyl phosphate,AAxEby,CCO,ethanol,AAIsrh,C[N+]1(CCO)CCCC1,COP(=O)([O-])OC,2,,,,2513,False,C[N+]1(CCO)CCCC1.COP(=O)([O-])OC,No changes
Abmnd,333.15,100.0,1212.0,Krolikowska et al. (2021b),Liquid,1.0,1-(2-hydroxyethyl)-1-methylpyrrolidinium dimethyl phosphate,,,C[N+]1(CCO)CCCC1.COP(=O)([O-])OC,1-(2-hydroxyethyl)-1-methylpyrrolidinium dimethyl phosphate,AAxEby,CCO,ethanol,AAIsrh,C[N+]1(CCO)CCCC1,COP(=O)([O-])OC,2,,,,2514,False,C[N+]1(CCO)CCCC1.COP(=O)([O-])OC,No changes
Abmnd,338.15,100.0,749.0,Krolikowska et al. (2021b),Liquid,0.0,1-(2-hydroxyethyl)-1-methylpyrrolidinium dimethyl phosphate,,,C[N+]1(CCO)CCCC1.COP(=O)([O-])OC,1-(2-hydroxyethyl)-1-methylpyrrolidinium dimethyl phosphate,AAxEby,CCO,ethanol,AAIsrh,C[N+]1(CCO)CCCC1,COP(=O)([O-])OC,2,,,,2515,False,C[N+]1(CCO)CCCC1.COP(=O)([O-])OC,No changes
Abmnd,338.15,100.0,837.0,Krolikowska et al. (2021b),Liquid,0.0561,1-(2-hydroxyethyl)-1-methylpyrrolidinium dimethyl phosphate,,,C[N+]1(CCO)CCCC1.COP(=O)([O-])OC,1-(2-hydroxyethyl)-1-methylpyrrolidinium dimethyl phosphate,AAxEby,CCO,ethanol,AAIsrh,C[N+]1(CCO)CCCC1,COP(=O)([O-])OC,2,,,,2516,False,C[N+]1(CCO)CCCC1.COP(=O)([O-])OC,No changes
Abmnd,338.15,100.0,898.0,Krolikowska et al. (2021b),Liquid,0.1077,1-(2-hydroxyethyl)-1-methylpyrrolidinium dimethyl phosphate,,,C[N+]1(CCO)CCCC1.COP(=O)([O-])OC,1-(2-hydroxyethyl)-1-methylpyrrolidinium dimethyl phosphate,AAxEby,CCO,ethanol,AAIsrh,C[N+]1(CCO)CCCC1,COP(=O)([O-])OC,2,,,,2517,False,C[N+]1(CCO)CCCC1.COP(=O)([O-])OC,No changes
Abmnd,338.15,100.0,941.0,Krolikowska et al. (2021b),Liquid,0.1523,1-(2-hydroxyethyl)-1-methylpyrrolidinium dimethyl phosphate,,,C[N+]1(CCO)CCCC1.COP(=O)([O-])OC,1-(2-hydroxyethyl)-1-methylpyrrolidinium dimethyl phosphate,AAxEby,CCO,ethanol,AAIsrh,C[N+]1(CCO)CCCC1,COP(=O)([O-])OC,2,,,,2518,False,C[N+]1(CCO)CCCC1.COP(=O)([O-])OC,No changes
Abmnd,338.15,100.0,984.0,Krolikowska et al. (2021b),Liquid,0.2079,1-(2-hydroxyethyl)-1-methylpyrrolidinium dimethyl phosphate,,,C[N+]1(CCO)CCCC1.COP(=O)([O-])OC,1-(2-hydroxyethyl)-1-methylpyrrolidinium dimethyl phosphate,AAxEby,CCO,ethanol,AAIsrh,C[N+]1(CCO)CCCC1,COP(=O)([O-])OC,2,,,,2519,False,C[N+]1(CCO)CCCC1.COP(=O)([O-])OC,No changes
Abmnd,338.15,100.0,1013.0,Krolikowska et al. (2021b),Liquid,0.2537,1-(2-hydroxyethyl)-1-methylpyrrolidinium dimethyl phosphate,,,C[N+]1(CCO)CCCC1.COP(=O)([O-])OC,1-(2-hydroxyethyl)-1-methylpyrrolidinium dimethyl phosphate,AAxEby,CCO,ethanol,AAIsrh,C[N+]1(CCO)CCCC1,COP(=O)([O-])OC,2,,,,2520,False,C[N+]1(CCO)CCCC1.COP(=O)([O-])OC,No changes
Abmnd,338.15,100.0,1043.0,Krolikowska et al. (2021b),Liquid,0.3084,1-(2-hydroxyethyl)-1-methylpyrrolidinium dimethyl phosphate,,,C[N+]1(CCO)CCCC1.COP(=O)([O-])OC,1-(2-hydroxyethyl)-1-methylpyrrolidinium dimethyl phosphate,AAxEby,CCO,ethanol,AAIsrh,C[N+]1(CCO)CCCC1,COP(=O)([O-])OC,2,,,,2521,False,C[N+]1(CCO)CCCC1.COP(=O)([O-])OC,No changes
Abmnd,338.15,100.0,1083.0,Krolikowska et al. (2021b),Liquid,0.4033,1-(2-hydroxyethyl)-1-methylpyrrolidinium dimethyl phosphate,,,C[N+]1(CCO)CCCC1.COP(=O)([O-])OC,1-(2-hydroxyethyl)-1-methylpyrrolidinium dimethyl phosphate,AAxEby,CCO,ethanol,AAIsrh,C[N+]1(CCO)CCCC1,COP(=O)([O-])OC,2,,,,2522,False,C[N+]1(CCO)CCCC1.COP(=O)([O-])OC,No changes
Abmnd,338.15,100.0,1118.0,Krolikowska et al. (2021b),Liquid,0.5077,1-(2-hydroxyethyl)-1-methylpyrrolidinium dimethyl phosphate,,,C[N+]1(CCO)CCCC1.COP(=O)([O-])OC,1-(2-hydroxyethyl)-1-methylpyrrolidinium dimethyl phosphate,AAxEby,CCO,ethanol,AAIsrh,C[N+]1(CCO)CCCC1,COP(=O)([O-])OC,2,,,,2523,False,C[N+]1(CCO)CCCC1.COP(=O)([O-])OC,No changes
Abmnd,338.15,100.0,1143.0,Krolikowska et al. (2021b),Liquid,0.6042,1-(2-hydroxyethyl)-1-methylpyrrolidinium dimethyl phosphate,,,C[N+]1(CCO)CCCC1.COP(=O)([O-])OC,1-(2-hydroxyethyl)-1-methylpyrrolidinium dimethyl phosphate,AAxEby,CCO,ethanol,AAIsrh,C[N+]1(CCO)CCCC1,COP(=O)([O-])OC,2,,,,2524,False,C[N+]1(CCO)CCCC1.COP(=O)([O-])OC,No changes
Abmnd,338.15,100.0,1165.0,Krolikowska et al. (2021b),Liquid,0.7053,1-(2-hydroxyethyl)-1-methylpyrrolidinium dimethyl phosphate,,,C[N+]1(CCO)CCCC1.COP(=O)([O-])OC,1-(2-hydroxyethyl)-1-methylpyrrolidinium dimethyl phosphate,AAxEby,CCO,ethanol,AAIsrh,C[N+]1(CCO)CCCC1,COP(=O)([O-])OC,2,,,,2525,False,C[N+]1(CCO)CCCC1.COP(=O)([O-])OC,No changes
Abmnd,338.15,100.0,1182.0,Krolikowska et al. (2021b),Liquid,0.8055,1-(2-hydroxyethyl)-1-methylpyrrolidinium dimethyl phosphate,,,C[N+]1(CCO)CCCC1.COP(=O)([O-])OC,1-(2-hydroxyethyl)-1-methylpyrrolidinium dimethyl phosphate,AAxEby,CCO,ethanol,AAIsrh,C[N+]1(CCO)CCCC1,COP(=O)([O-])OC,2,,,,2526,False,C[N+]1(CCO)CCCC1.COP(=O)([O-])OC,No changes
Abmnd,338.15,100.0,1198.0,Krolikowska et al. (2021b),Liquid,0.9053,1-(2-hydroxyethyl)-1-methylpyrrolidinium dimethyl phosphate,,,C[N+]1(CCO)CCCC1.COP(=O)([O-])OC,1-(2-hydroxyethyl)-1-methylpyrrolidinium dimethyl phosphate,AAxEby,CCO,ethanol,AAIsrh,C[N+]1(CCO)CCCC1,COP(=O)([O-])OC,2,,,,2527,False,C[N+]1(CCO)CCCC1.COP(=O)([O-])OC,No changes
Abmnd,338.15,100.0,1209.0,Krolikowska et al. (2021b),Liquid,1.0,1-(2-hydroxyethyl)-1-methylpyrrolidinium dimethyl phosphate,,,C[N+]1(CCO)CCCC1.COP(=O)([O-])OC,1-(2-hydroxyethyl)-1-methylpyrrolidinium dimethyl phosphate,AAxEby,CCO,ethanol,AAIsrh,C[N+]1(CCO)CCCC1,COP(=O)([O-])OC,2,,,,2528,False,C[N+]1(CCO)CCCC1.COP(=O)([O-])OC,No changes
hptBL,298.15,101.0,784.8,Domanska et al. (2008d),Liquid,0.0,"1,3-dimethylimidazolium methylsulfate",,,Cn1cc[n+](C)c1.COS(=O)(=O)[O-],"1,3-dimethylimidazolium methylsulfate",AAoCnc,CCO,ethanol,AAIsrh,Cn1cc[n+](C)c1,COS(=O)(=O)[O-],2,,,,2529,False,Cn1cc[n+](C)c1.COS(=O)(=O)[O-],No changes
hptBL,298.15,101.0,959.2,Domanska et al. (2008d),Liquid,0.1372,"1,3-dimethylimidazolium methylsulfate",,,Cn1cc[n+](C)c1.COS(=O)(=O)[O-],"1,3-dimethylimidazolium methylsulfate",AAoCnc,CCO,ethanol,AAIsrh,Cn1cc[n+](C)c1,COS(=O)(=O)[O-],2,,,,2530,False,Cn1cc[n+](C)c1.COS(=O)(=O)[O-],No changes
hptBL,298.15,101.0,1106.8,Domanska et al. (2008d),Liquid,0.3258,"1,3-dimethylimidazolium methylsulfate",,,Cn1cc[n+](C)c1.COS(=O)(=O)[O-],"1,3-dimethylimidazolium methylsulfate",AAoCnc,CCO,ethanol,AAIsrh,Cn1cc[n+](C)c1,COS(=O)(=O)[O-],2,,,,2531,False,Cn1cc[n+](C)c1.COS(=O)(=O)[O-],No changes
hptBL,298.15,101.0,1182.5,Domanska et al. (2008d),Liquid,0.4688,"1,3-dimethylimidazolium methylsulfate",,,Cn1cc[n+](C)c1.COS(=O)(=O)[O-],"1,3-dimethylimidazolium methylsulfate",AAoCnc,CCO,ethanol,AAIsrh,Cn1cc[n+](C)c1,COS(=O)(=O)[O-],2,,,,2532,False,Cn1cc[n+](C)c1.COS(=O)(=O)[O-],No changes
hptBL,298.15,101.0,1249.1,Domanska et al. (2008d),Liquid,0.6433,"1,3-dimethylimidazolium methylsulfate",,,Cn1cc[n+](C)c1.COS(=O)(=O)[O-],"1,3-dimethylimidazolium methylsulfate",AAoCnc,CCO,ethanol,AAIsrh,Cn1cc[n+](C)c1,COS(=O)(=O)[O-],2,,,,2533,False,Cn1cc[n+](C)c1.COS(=O)(=O)[O-],No changes
hptBL,298.15,101.0,1271.6,Domanska et al. (2008d),Liquid,0.7179,"1,3-dimethylimidazolium methylsulfate",,,Cn1cc[n+](C)c1.COS(=O)(=O)[O-],"1,3-dimethylimidazolium methylsulfate",AAoCnc,CCO,ethanol,AAIsrh,Cn1cc[n+](C)c1,COS(=O)(=O)[O-],2,,,,2534,False,Cn1cc[n+](C)c1.COS(=O)(=O)[O-],No changes
hptBL,298.15,101.0,1293.1,Domanska et al. (2008d),Liquid,0.8004,"1,3-dimethylimidazolium methylsulfate",,,Cn1cc[n+](C)c1.COS(=O)(=O)[O-],"1,3-dimethylimidazolium methylsulfate",AAoCnc,CCO,ethanol,AAIsrh,Cn1cc[n+](C)c1,COS(=O)(=O)[O-],2,,,,2535,False,Cn1cc[n+](C)c1.COS(=O)(=O)[O-],No changes
hptBL,298.15,101.0,1312.7,Domanska et al. (2008d),Liquid,0.8911,"1,3-dimethylimidazolium methylsulfate",,,Cn1cc[n+](C)c1.COS(=O)(=O)[O-],"1,3-dimethylimidazolium methylsulfate",AAoCnc,CCO,ethanol,AAIsrh,Cn1cc[n+](C)c1,COS(=O)(=O)[O-],2,,,,2536,False,Cn1cc[n+](C)c1.COS(=O)(=O)[O-],No changes
hptBL,298.15,101.0,1326.1,Domanska et al. (2008d),Liquid,0.9703,"1,3-dimethylimidazolium methylsulfate",,,Cn1cc[n+](C)c1.COS(=O)(=O)[O-],"1,3-dimethylimidazolium methylsulfate",AAoCnc,CCO,ethanol,AAIsrh,Cn1cc[n+](C)c1,COS(=O)(=O)[O-],2,,,,2537,False,Cn1cc[n+](C)c1.COS(=O)(=O)[O-],No changes
vrCAW,298.15,101.0,1220.7,Arce et al. (2006a),Liquid,0.8729,ethanol,,,CC[n+]1ccn(C)c1.CCOS(=O)(=O)[O-],1-ethyl-3-methylimidazolium ethyl sulfate,AAtWDT,CCO,ethanol,AAIsrh,CC[n+]1ccn(C)c1,CCOS(=O)(=O)[O-],2,0.1271,,,2538,False,CC[n+]1ccn(C)c1.CCOS(=O)(=O)[O-],No changes
vrCAW,298.15,101.0,1220.6,Arce et al. (2006a),Liquid,0.8719,ethanol,,,CC[n+]1ccn(C)c1.CCOS(=O)(=O)[O-],1-ethyl-3-methylimidazolium ethyl sulfate,AAtWDT,CCO,ethanol,AAIsrh,CC[n+]1ccn(C)c1,CCOS(=O)(=O)[O-],2,0.1281,,,2539,False,CC[n+]1ccn(C)c1.CCOS(=O)(=O)[O-],No changes
vrCAW,298.15,101.0,1208.0,Arce et al. (2006a),Liquid,0.7961,ethanol,,,CC[n+]1ccn(C)c1.CCOS(=O)(=O)[O-],1-ethyl-3-methylimidazolium ethyl sulfate,AAtWDT,CCO,ethanol,AAIsrh,CC[n+]1ccn(C)c1,CCOS(=O)(=O)[O-],2,0.2039,,,2540,False,CC[n+]1ccn(C)c1.CCOS(=O)(=O)[O-],No changes
vrCAW,298.15,101.0,1205.3,Arce et al. (2006a),Liquid,0.7813,ethanol,,,CC[n+]1ccn(C)c1.CCOS(=O)(=O)[O-],1-ethyl-3-methylimidazolium ethyl sulfate,AAtWDT,CCO,ethanol,AAIsrh,CC[n+]1ccn(C)c1,CCOS(=O)(=O)[O-],2,0.2187,,,2541,False,CC[n+]1ccn(C)c1.CCOS(=O)(=O)[O-],No changes
vrCAW,298.15,101.0,1187.7,Arce et al. (2006a),Liquid,0.6912,ethanol,,,CC[n+]1ccn(C)c1.CCOS(=O)(=O)[O-],1-ethyl-3-methylimidazolium ethyl sulfate,AAtWDT,CCO,ethanol,AAIsrh,CC[n+]1ccn(C)c1,CCOS(=O)(=O)[O-],2,0.3088,,,2542,False,CC[n+]1ccn(C)c1.CCOS(=O)(=O)[O-],No changes
vrCAW,298.15,101.0,1184.1,Arce et al. (2006a),Liquid,0.6744,ethanol,,,CC[n+]1ccn(C)c1.CCOS(=O)(=O)[O-],1-ethyl-3-methylimidazolium ethyl sulfate,AAtWDT,CCO,ethanol,AAIsrh,CC[n+]1ccn(C)c1,CCOS(=O)(=O)[O-],2,0.3256,,,2543,False,CC[n+]1ccn(C)c1.CCOS(=O)(=O)[O-],No changes
vrCAW,298.15,101.0,1176.3,Arce et al. (2006a),Liquid,0.6402,ethanol,,,CC[n+]1ccn(C)c1.CCOS(=O)(=O)[O-],1-ethyl-3-methylimidazolium ethyl sulfate,AAtWDT,CCO,ethanol,AAIsrh,CC[n+]1ccn(C)c1,CCOS(=O)(=O)[O-],2,0.3598,,,2544,False,CC[n+]1ccn(C)c1.CCOS(=O)(=O)[O-],No changes
vrCAW,298.15,101.0,1162.6,Arce et al. (2006a),Liquid,0.5852999999999999,ethanol,,,CC[n+]1ccn(C)c1.CCOS(=O)(=O)[O-],1-ethyl-3-methylimidazolium ethyl sulfate,AAtWDT,CCO,ethanol,AAIsrh,CC[n+]1ccn(C)c1,CCOS(=O)(=O)[O-],2,0.4147,,,2545,False,CC[n+]1ccn(C)c1.CCOS(=O)(=O)[O-],No changes
vrCAW,298.15,101.0,1157.7,Arce et al. (2006a),Liquid,0.5664,ethanol,,,CC[n+]1ccn(C)c1.CCOS(=O)(=O)[O-],1-ethyl-3-methylimidazolium ethyl sulfate,AAtWDT,CCO,ethanol,AAIsrh,CC[n+]1ccn(C)c1,CCOS(=O)(=O)[O-],2,0.4336,,,2546,False,CC[n+]1ccn(C)c1.CCOS(=O)(=O)[O-],No changes
vrCAW,298.15,101.0,1150.1,Arce et al. (2006a),Liquid,0.5396000000000001,ethanol,,,CC[n+]1ccn(C)c1.CCOS(=O)(=O)[O-],1-ethyl-3-methylimidazolium ethyl sulfate,AAtWDT,CCO,ethanol,AAIsrh,CC[n+]1ccn(C)c1,CCOS(=O)(=O)[O-],2,0.4604,,,2547,False,CC[n+]1ccn(C)c1.CCOS(=O)(=O)[O-],No changes
vrCAW,298.15,101.0,1134.8,Arce et al. (2006a),Liquid,0.4897,ethanol,,,CC[n+]1ccn(C)c1.CCOS(=O)(=O)[O-],1-ethyl-3-methylimidazolium ethyl sulfate,AAtWDT,CCO,ethanol,AAIsrh,CC[n+]1ccn(C)c1,CCOS(=O)(=O)[O-],2,0.5103,,,2548,False,CC[n+]1ccn(C)c1.CCOS(=O)(=O)[O-],No changes
vrCAW,298.15,101.0,1131.0,Arce et al. (2006a),Liquid,0.4777,ethanol,,,CC[n+]1ccn(C)c1.CCOS(=O)(=O)[O-],1-ethyl-3-methylimidazolium ethyl sulfate,AAtWDT,CCO,ethanol,AAIsrh,CC[n+]1ccn(C)c1,CCOS(=O)(=O)[O-],2,0.5223,,,2549,False,CC[n+]1ccn(C)c1.CCOS(=O)(=O)[O-],No changes
vrCAW,298.15,101.0,1113.2,Arce et al. (2006a),Liquid,0.4276,ethanol,,,CC[n+]1ccn(C)c1.CCOS(=O)(=O)[O-],1-ethyl-3-methylimidazolium ethyl sulfate,AAtWDT,CCO,ethanol,AAIsrh,CC[n+]1ccn(C)c1,CCOS(=O)(=O)[O-],2,0.5724,,,2550,False,CC[n+]1ccn(C)c1.CCOS(=O)(=O)[O-],No changes