setid,Temperature (K),Pressure (kPa),Density (kg/m3),reference,phases,Mole fraction,Mole fraction of compound name,Weight fraction,Weight fraction of compound name,IL_SMILES,IL_name,IL_ID,Solvent_SMILES,Solvent_name,Solvent_ID,IL_cation_SMILES,IL_anion_SMILES,IL_component_number,Mole fraction of solvent,IL_MW,Solvent_MW,Record_ID,Contains_Metal,Standardized_IL_SMILES,Changes
pYeve,313.15,101.0,836.2,Gomez et al. (2006c),Liquid,0.0445999999999999,ethanol,,,CC[n+]1ccn(C)c1.CCOS(=O)(=O)[O-],1-ethyl-3-methylimidazolium ethyl sulfate,AAtWDT,CCO,ethanol,AAIsrh,CC[n+]1ccn(C)c1,CCOS(=O)(=O)[O-],2,0.9554,,,2373,False,CC[n+]1ccn(C)c1.CCOS(=O)(=O)[O-],No changes
pYeve,313.15,101.0,824.7,Gomez et al. (2006c),Liquid,0.036,ethanol,,,CC[n+]1ccn(C)c1.CCOS(=O)(=O)[O-],1-ethyl-3-methylimidazolium ethyl sulfate,AAtWDT,CCO,ethanol,AAIsrh,CC[n+]1ccn(C)c1,CCOS(=O)(=O)[O-],2,0.964,,,2374,False,CC[n+]1ccn(C)c1.CCOS(=O)(=O)[O-],No changes
pYeve,313.15,101.0,793.4,Gomez et al. (2006c),Liquid,0.0137,ethanol,,,CC[n+]1ccn(C)c1.CCOS(=O)(=O)[O-],1-ethyl-3-methylimidazolium ethyl sulfate,AAtWDT,CCO,ethanol,AAIsrh,CC[n+]1ccn(C)c1,CCOS(=O)(=O)[O-],2,0.9863,,,2375,False,CC[n+]1ccn(C)c1.CCOS(=O)(=O)[O-],No changes
pYeve,313.15,101.0,772.0,Gomez et al. (2006c),Liquid,0.0,ethanol,,,CC[n+]1ccn(C)c1.CCOS(=O)(=O)[O-],1-ethyl-3-methylimidazolium ethyl sulfate,AAtWDT,CCO,ethanol,AAIsrh,CC[n+]1ccn(C)c1,CCOS(=O)(=O)[O-],2,1.0,,,2376,False,CC[n+]1ccn(C)c1.CCOS(=O)(=O)[O-],No changes
pYeve,328.15,101.0,1217.5,Gomez et al. (2006c),Liquid,1.0,ethanol,,,CC[n+]1ccn(C)c1.CCOS(=O)(=O)[O-],1-ethyl-3-methylimidazolium ethyl sulfate,AAtWDT,CCO,ethanol,AAIsrh,CC[n+]1ccn(C)c1,CCOS(=O)(=O)[O-],2,0.0,,,2377,False,CC[n+]1ccn(C)c1.CCOS(=O)(=O)[O-],No changes
pYeve,328.15,101.0,1208.8,Gomez et al. (2006c),Liquid,0.9377,ethanol,,,CC[n+]1ccn(C)c1.CCOS(=O)(=O)[O-],1-ethyl-3-methylimidazolium ethyl sulfate,AAtWDT,CCO,ethanol,AAIsrh,CC[n+]1ccn(C)c1,CCOS(=O)(=O)[O-],2,0.0623,,,2378,False,CC[n+]1ccn(C)c1.CCOS(=O)(=O)[O-],No changes
pYeve,328.15,101.0,1181.0,Gomez et al. (2006c),Liquid,0.77,ethanol,,,CC[n+]1ccn(C)c1.CCOS(=O)(=O)[O-],1-ethyl-3-methylimidazolium ethyl sulfate,AAtWDT,CCO,ethanol,AAIsrh,CC[n+]1ccn(C)c1,CCOS(=O)(=O)[O-],2,0.23,,,2379,False,CC[n+]1ccn(C)c1.CCOS(=O)(=O)[O-],No changes
pYeve,328.15,101.0,1140.94,Gomez et al. (2006c),Liquid,0.5887,ethanol,,,CC[n+]1ccn(C)c1.CCOS(=O)(=O)[O-],1-ethyl-3-methylimidazolium ethyl sulfate,AAtWDT,CCO,ethanol,AAIsrh,CC[n+]1ccn(C)c1,CCOS(=O)(=O)[O-],2,0.4113,,,2380,False,CC[n+]1ccn(C)c1.CCOS(=O)(=O)[O-],No changes
pYeve,328.15,101.0,1102.3,Gomez et al. (2006c),Liquid,0.4607,ethanol,,,CC[n+]1ccn(C)c1.CCOS(=O)(=O)[O-],1-ethyl-3-methylimidazolium ethyl sulfate,AAtWDT,CCO,ethanol,AAIsrh,CC[n+]1ccn(C)c1,CCOS(=O)(=O)[O-],2,0.5393,,,2381,False,CC[n+]1ccn(C)c1.CCOS(=O)(=O)[O-],No changes
pYeve,328.15,101.0,1044.7,Gomez et al. (2006c),Liquid,0.3212,ethanol,,,CC[n+]1ccn(C)c1.CCOS(=O)(=O)[O-],1-ethyl-3-methylimidazolium ethyl sulfate,AAtWDT,CCO,ethanol,AAIsrh,CC[n+]1ccn(C)c1,CCOS(=O)(=O)[O-],2,0.6788,,,2382,False,CC[n+]1ccn(C)c1.CCOS(=O)(=O)[O-],No changes
pYeve,328.15,101.0,995.2,Gomez et al. (2006c),Liquid,0.2338,ethanol,,,CC[n+]1ccn(C)c1.CCOS(=O)(=O)[O-],1-ethyl-3-methylimidazolium ethyl sulfate,AAtWDT,CCO,ethanol,AAIsrh,CC[n+]1ccn(C)c1,CCOS(=O)(=O)[O-],2,0.7662,,,2383,False,CC[n+]1ccn(C)c1.CCOS(=O)(=O)[O-],No changes
pYeve,328.15,101.0,949.6,Gomez et al. (2006c),Liquid,0.1696999999999999,ethanol,,,CC[n+]1ccn(C)c1.CCOS(=O)(=O)[O-],1-ethyl-3-methylimidazolium ethyl sulfate,AAtWDT,CCO,ethanol,AAIsrh,CC[n+]1ccn(C)c1,CCOS(=O)(=O)[O-],2,0.8303,,,2384,False,CC[n+]1ccn(C)c1.CCOS(=O)(=O)[O-],No changes
pYeve,328.15,101.0,823.5,Gomez et al. (2006c),Liquid,0.0445999999999999,ethanol,,,CC[n+]1ccn(C)c1.CCOS(=O)(=O)[O-],1-ethyl-3-methylimidazolium ethyl sulfate,AAtWDT,CCO,ethanol,AAIsrh,CC[n+]1ccn(C)c1,CCOS(=O)(=O)[O-],2,0.9554,,,2385,False,CC[n+]1ccn(C)c1.CCOS(=O)(=O)[O-],No changes
pYeve,328.15,101.0,812.0,Gomez et al. (2006c),Liquid,0.036,ethanol,,,CC[n+]1ccn(C)c1.CCOS(=O)(=O)[O-],1-ethyl-3-methylimidazolium ethyl sulfate,AAtWDT,CCO,ethanol,AAIsrh,CC[n+]1ccn(C)c1,CCOS(=O)(=O)[O-],2,0.964,,,2386,False,CC[n+]1ccn(C)c1.CCOS(=O)(=O)[O-],No changes
pYeve,328.15,101.0,780.3,Gomez et al. (2006c),Liquid,0.0137,ethanol,,,CC[n+]1ccn(C)c1.CCOS(=O)(=O)[O-],1-ethyl-3-methylimidazolium ethyl sulfate,AAtWDT,CCO,ethanol,AAIsrh,CC[n+]1ccn(C)c1,CCOS(=O)(=O)[O-],2,0.9863,,,2387,False,CC[n+]1ccn(C)c1.CCOS(=O)(=O)[O-],No changes
pYeve,328.15,101.0,758.6,Gomez et al. (2006c),Liquid,0.0,ethanol,,,CC[n+]1ccn(C)c1.CCOS(=O)(=O)[O-],1-ethyl-3-methylimidazolium ethyl sulfate,AAtWDT,CCO,ethanol,AAIsrh,CC[n+]1ccn(C)c1,CCOS(=O)(=O)[O-],2,1.0,,,2388,False,CC[n+]1ccn(C)c1.CCOS(=O)(=O)[O-],No changes
Abmnd,293.15,100.0,789.0,Krolikowska et al. (2021b),Liquid,0.0,1-(2-hydroxyethyl)-1-methylpyrrolidinium dimethyl phosphate,,,C[N+]1(CCO)CCCC1.COP(=O)([O-])OC,1-(2-hydroxyethyl)-1-methylpyrrolidinium dimethyl phosphate,AAxEby,CCO,ethanol,AAIsrh,C[N+]1(CCO)CCCC1,COP(=O)([O-])OC,2,,,,2389,False,C[N+]1(CCO)CCCC1.COP(=O)([O-])OC,No changes
Abmnd,293.15,100.0,874.0,Krolikowska et al. (2021b),Liquid,0.0561,1-(2-hydroxyethyl)-1-methylpyrrolidinium dimethyl phosphate,,,C[N+]1(CCO)CCCC1.COP(=O)([O-])OC,1-(2-hydroxyethyl)-1-methylpyrrolidinium dimethyl phosphate,AAxEby,CCO,ethanol,AAIsrh,C[N+]1(CCO)CCCC1,COP(=O)([O-])OC,2,,,,2390,False,C[N+]1(CCO)CCCC1.COP(=O)([O-])OC,No changes
Abmnd,293.15,100.0,933.0,Krolikowska et al. (2021b),Liquid,0.1077,1-(2-hydroxyethyl)-1-methylpyrrolidinium dimethyl phosphate,,,C[N+]1(CCO)CCCC1.COP(=O)([O-])OC,1-(2-hydroxyethyl)-1-methylpyrrolidinium dimethyl phosphate,AAxEby,CCO,ethanol,AAIsrh,C[N+]1(CCO)CCCC1,COP(=O)([O-])OC,2,,,,2391,False,C[N+]1(CCO)CCCC1.COP(=O)([O-])OC,No changes
Abmnd,293.15,100.0,975.0,Krolikowska et al. (2021b),Liquid,0.1523,1-(2-hydroxyethyl)-1-methylpyrrolidinium dimethyl phosphate,,,C[N+]1(CCO)CCCC1.COP(=O)([O-])OC,1-(2-hydroxyethyl)-1-methylpyrrolidinium dimethyl phosphate,AAxEby,CCO,ethanol,AAIsrh,C[N+]1(CCO)CCCC1,COP(=O)([O-])OC,2,,,,2392,False,C[N+]1(CCO)CCCC1.COP(=O)([O-])OC,No changes
Abmnd,293.15,100.0,1016.0,Krolikowska et al. (2021b),Liquid,0.2079,1-(2-hydroxyethyl)-1-methylpyrrolidinium dimethyl phosphate,,,C[N+]1(CCO)CCCC1.COP(=O)([O-])OC,1-(2-hydroxyethyl)-1-methylpyrrolidinium dimethyl phosphate,AAxEby,CCO,ethanol,AAIsrh,C[N+]1(CCO)CCCC1,COP(=O)([O-])OC,2,,,,2393,False,C[N+]1(CCO)CCCC1.COP(=O)([O-])OC,No changes
Abmnd,293.15,100.0,1045.0,Krolikowska et al. (2021b),Liquid,0.2537,1-(2-hydroxyethyl)-1-methylpyrrolidinium dimethyl phosphate,,,C[N+]1(CCO)CCCC1.COP(=O)([O-])OC,1-(2-hydroxyethyl)-1-methylpyrrolidinium dimethyl phosphate,AAxEby,CCO,ethanol,AAIsrh,C[N+]1(CCO)CCCC1,COP(=O)([O-])OC,2,,,,2394,False,C[N+]1(CCO)CCCC1.COP(=O)([O-])OC,No changes
Abmnd,293.15,100.0,1074.0,Krolikowska et al. (2021b),Liquid,0.3084,1-(2-hydroxyethyl)-1-methylpyrrolidinium dimethyl phosphate,,,C[N+]1(CCO)CCCC1.COP(=O)([O-])OC,1-(2-hydroxyethyl)-1-methylpyrrolidinium dimethyl phosphate,AAxEby,CCO,ethanol,AAIsrh,C[N+]1(CCO)CCCC1,COP(=O)([O-])OC,2,,,,2395,False,C[N+]1(CCO)CCCC1.COP(=O)([O-])OC,No changes
Abmnd,293.15,100.0,1114.0,Krolikowska et al. (2021b),Liquid,0.4033,1-(2-hydroxyethyl)-1-methylpyrrolidinium dimethyl phosphate,,,C[N+]1(CCO)CCCC1.COP(=O)([O-])OC,1-(2-hydroxyethyl)-1-methylpyrrolidinium dimethyl phosphate,AAxEby,CCO,ethanol,AAIsrh,C[N+]1(CCO)CCCC1,COP(=O)([O-])OC,2,,,,2396,False,C[N+]1(CCO)CCCC1.COP(=O)([O-])OC,No changes
Abmnd,293.15,100.0,1148.0,Krolikowska et al. (2021b),Liquid,0.5077,1-(2-hydroxyethyl)-1-methylpyrrolidinium dimethyl phosphate,,,C[N+]1(CCO)CCCC1.COP(=O)([O-])OC,1-(2-hydroxyethyl)-1-methylpyrrolidinium dimethyl phosphate,AAxEby,CCO,ethanol,AAIsrh,C[N+]1(CCO)CCCC1,COP(=O)([O-])OC,2,,,,2397,False,C[N+]1(CCO)CCCC1.COP(=O)([O-])OC,No changes
Abmnd,293.15,100.0,1172.0,Krolikowska et al. (2021b),Liquid,0.6042,1-(2-hydroxyethyl)-1-methylpyrrolidinium dimethyl phosphate,,,C[N+]1(CCO)CCCC1.COP(=O)([O-])OC,1-(2-hydroxyethyl)-1-methylpyrrolidinium dimethyl phosphate,AAxEby,CCO,ethanol,AAIsrh,C[N+]1(CCO)CCCC1,COP(=O)([O-])OC,2,,,,2398,False,C[N+]1(CCO)CCCC1.COP(=O)([O-])OC,No changes
Abmnd,293.15,100.0,1193.0,Krolikowska et al. (2021b),Liquid,0.7053,1-(2-hydroxyethyl)-1-methylpyrrolidinium dimethyl phosphate,,,C[N+]1(CCO)CCCC1.COP(=O)([O-])OC,1-(2-hydroxyethyl)-1-methylpyrrolidinium dimethyl phosphate,AAxEby,CCO,ethanol,AAIsrh,C[N+]1(CCO)CCCC1,COP(=O)([O-])OC,2,,,,2399,False,C[N+]1(CCO)CCCC1.COP(=O)([O-])OC,No changes
Abmnd,293.15,100.0,1211.0,Krolikowska et al. (2021b),Liquid,0.8055,1-(2-hydroxyethyl)-1-methylpyrrolidinium dimethyl phosphate,,,C[N+]1(CCO)CCCC1.COP(=O)([O-])OC,1-(2-hydroxyethyl)-1-methylpyrrolidinium dimethyl phosphate,AAxEby,CCO,ethanol,AAIsrh,C[N+]1(CCO)CCCC1,COP(=O)([O-])OC,2,,,,2400,False,C[N+]1(CCO)CCCC1.COP(=O)([O-])OC,No changes
Abmnd,293.15,100.0,1225.0,Krolikowska et al. (2021b),Liquid,0.9053,1-(2-hydroxyethyl)-1-methylpyrrolidinium dimethyl phosphate,,,C[N+]1(CCO)CCCC1.COP(=O)([O-])OC,1-(2-hydroxyethyl)-1-methylpyrrolidinium dimethyl phosphate,AAxEby,CCO,ethanol,AAIsrh,C[N+]1(CCO)CCCC1,COP(=O)([O-])OC,2,,,,2401,False,C[N+]1(CCO)CCCC1.COP(=O)([O-])OC,No changes
Abmnd,293.15,100.0,1237.0,Krolikowska et al. (2021b),Liquid,1.0,1-(2-hydroxyethyl)-1-methylpyrrolidinium dimethyl phosphate,,,C[N+]1(CCO)CCCC1.COP(=O)([O-])OC,1-(2-hydroxyethyl)-1-methylpyrrolidinium dimethyl phosphate,AAxEby,CCO,ethanol,AAIsrh,C[N+]1(CCO)CCCC1,COP(=O)([O-])OC,2,,,,2402,False,C[N+]1(CCO)CCCC1.COP(=O)([O-])OC,No changes
Abmnd,298.15,100.0,785.0,Krolikowska et al. (2021b),Liquid,0.0,1-(2-hydroxyethyl)-1-methylpyrrolidinium dimethyl phosphate,,,C[N+]1(CCO)CCCC1.COP(=O)([O-])OC,1-(2-hydroxyethyl)-1-methylpyrrolidinium dimethyl phosphate,AAxEby,CCO,ethanol,AAIsrh,C[N+]1(CCO)CCCC1,COP(=O)([O-])OC,2,,,,2403,False,C[N+]1(CCO)CCCC1.COP(=O)([O-])OC,No changes
Abmnd,298.15,100.0,870.0,Krolikowska et al. (2021b),Liquid,0.0561,1-(2-hydroxyethyl)-1-methylpyrrolidinium dimethyl phosphate,,,C[N+]1(CCO)CCCC1.COP(=O)([O-])OC,1-(2-hydroxyethyl)-1-methylpyrrolidinium dimethyl phosphate,AAxEby,CCO,ethanol,AAIsrh,C[N+]1(CCO)CCCC1,COP(=O)([O-])OC,2,,,,2404,False,C[N+]1(CCO)CCCC1.COP(=O)([O-])OC,No changes
Abmnd,298.15,100.0,930.0,Krolikowska et al. (2021b),Liquid,0.1077,1-(2-hydroxyethyl)-1-methylpyrrolidinium dimethyl phosphate,,,C[N+]1(CCO)CCCC1.COP(=O)([O-])OC,1-(2-hydroxyethyl)-1-methylpyrrolidinium dimethyl phosphate,AAxEby,CCO,ethanol,AAIsrh,C[N+]1(CCO)CCCC1,COP(=O)([O-])OC,2,,,,2405,False,C[N+]1(CCO)CCCC1.COP(=O)([O-])OC,No changes
Abmnd,298.15,100.0,971.0,Krolikowska et al. (2021b),Liquid,0.1523,1-(2-hydroxyethyl)-1-methylpyrrolidinium dimethyl phosphate,,,C[N+]1(CCO)CCCC1.COP(=O)([O-])OC,1-(2-hydroxyethyl)-1-methylpyrrolidinium dimethyl phosphate,AAxEby,CCO,ethanol,AAIsrh,C[N+]1(CCO)CCCC1,COP(=O)([O-])OC,2,,,,2406,False,C[N+]1(CCO)CCCC1.COP(=O)([O-])OC,No changes
Abmnd,298.15,100.0,1013.0,Krolikowska et al. (2021b),Liquid,0.2079,1-(2-hydroxyethyl)-1-methylpyrrolidinium dimethyl phosphate,,,C[N+]1(CCO)CCCC1.COP(=O)([O-])OC,1-(2-hydroxyethyl)-1-methylpyrrolidinium dimethyl phosphate,AAxEby,CCO,ethanol,AAIsrh,C[N+]1(CCO)CCCC1,COP(=O)([O-])OC,2,,,,2407,False,C[N+]1(CCO)CCCC1.COP(=O)([O-])OC,No changes
Abmnd,298.15,100.0,1041.0,Krolikowska et al. (2021b),Liquid,0.2537,1-(2-hydroxyethyl)-1-methylpyrrolidinium dimethyl phosphate,,,C[N+]1(CCO)CCCC1.COP(=O)([O-])OC,1-(2-hydroxyethyl)-1-methylpyrrolidinium dimethyl phosphate,AAxEby,CCO,ethanol,AAIsrh,C[N+]1(CCO)CCCC1,COP(=O)([O-])OC,2,,,,2408,False,C[N+]1(CCO)CCCC1.COP(=O)([O-])OC,No changes
Abmnd,298.15,100.0,1070.0,Krolikowska et al. (2021b),Liquid,0.3084,1-(2-hydroxyethyl)-1-methylpyrrolidinium dimethyl phosphate,,,C[N+]1(CCO)CCCC1.COP(=O)([O-])OC,1-(2-hydroxyethyl)-1-methylpyrrolidinium dimethyl phosphate,AAxEby,CCO,ethanol,AAIsrh,C[N+]1(CCO)CCCC1,COP(=O)([O-])OC,2,,,,2409,False,C[N+]1(CCO)CCCC1.COP(=O)([O-])OC,No changes
Abmnd,298.15,100.0,1110.0,Krolikowska et al. (2021b),Liquid,0.4033,1-(2-hydroxyethyl)-1-methylpyrrolidinium dimethyl phosphate,,,C[N+]1(CCO)CCCC1.COP(=O)([O-])OC,1-(2-hydroxyethyl)-1-methylpyrrolidinium dimethyl phosphate,AAxEby,CCO,ethanol,AAIsrh,C[N+]1(CCO)CCCC1,COP(=O)([O-])OC,2,,,,2410,False,C[N+]1(CCO)CCCC1.COP(=O)([O-])OC,No changes
Abmnd,298.15,100.0,1144.0,Krolikowska et al. (2021b),Liquid,0.5077,1-(2-hydroxyethyl)-1-methylpyrrolidinium dimethyl phosphate,,,C[N+]1(CCO)CCCC1.COP(=O)([O-])OC,1-(2-hydroxyethyl)-1-methylpyrrolidinium dimethyl phosphate,AAxEby,CCO,ethanol,AAIsrh,C[N+]1(CCO)CCCC1,COP(=O)([O-])OC,2,,,,2411,False,C[N+]1(CCO)CCCC1.COP(=O)([O-])OC,No changes
Abmnd,298.15,100.0,1169.0,Krolikowska et al. (2021b),Liquid,0.6042,1-(2-hydroxyethyl)-1-methylpyrrolidinium dimethyl phosphate,,,C[N+]1(CCO)CCCC1.COP(=O)([O-])OC,1-(2-hydroxyethyl)-1-methylpyrrolidinium dimethyl phosphate,AAxEby,CCO,ethanol,AAIsrh,C[N+]1(CCO)CCCC1,COP(=O)([O-])OC,2,,,,2412,False,C[N+]1(CCO)CCCC1.COP(=O)([O-])OC,No changes
Abmnd,298.15,100.0,1190.0,Krolikowska et al. (2021b),Liquid,0.7053,1-(2-hydroxyethyl)-1-methylpyrrolidinium dimethyl phosphate,,,C[N+]1(CCO)CCCC1.COP(=O)([O-])OC,1-(2-hydroxyethyl)-1-methylpyrrolidinium dimethyl phosphate,AAxEby,CCO,ethanol,AAIsrh,C[N+]1(CCO)CCCC1,COP(=O)([O-])OC,2,,,,2413,False,C[N+]1(CCO)CCCC1.COP(=O)([O-])OC,No changes
Abmnd,298.15,100.0,1208.0,Krolikowska et al. (2021b),Liquid,0.8055,1-(2-hydroxyethyl)-1-methylpyrrolidinium dimethyl phosphate,,,C[N+]1(CCO)CCCC1.COP(=O)([O-])OC,1-(2-hydroxyethyl)-1-methylpyrrolidinium dimethyl phosphate,AAxEby,CCO,ethanol,AAIsrh,C[N+]1(CCO)CCCC1,COP(=O)([O-])OC,2,,,,2414,False,C[N+]1(CCO)CCCC1.COP(=O)([O-])OC,No changes
Abmnd,298.15,100.0,1222.0,Krolikowska et al. (2021b),Liquid,0.9053,1-(2-hydroxyethyl)-1-methylpyrrolidinium dimethyl phosphate,,,C[N+]1(CCO)CCCC1.COP(=O)([O-])OC,1-(2-hydroxyethyl)-1-methylpyrrolidinium dimethyl phosphate,AAxEby,CCO,ethanol,AAIsrh,C[N+]1(CCO)CCCC1,COP(=O)([O-])OC,2,,,,2415,False,C[N+]1(CCO)CCCC1.COP(=O)([O-])OC,No changes
Abmnd,298.15,100.0,1234.0,Krolikowska et al. (2021b),Liquid,1.0,1-(2-hydroxyethyl)-1-methylpyrrolidinium dimethyl phosphate,,,C[N+]1(CCO)CCCC1.COP(=O)([O-])OC,1-(2-hydroxyethyl)-1-methylpyrrolidinium dimethyl phosphate,AAxEby,CCO,ethanol,AAIsrh,C[N+]1(CCO)CCCC1,COP(=O)([O-])OC,2,,,,2416,False,C[N+]1(CCO)CCCC1.COP(=O)([O-])OC,No changes
Abmnd,303.15,100.0,781.0,Krolikowska et al. (2021b),Liquid,0.0,1-(2-hydroxyethyl)-1-methylpyrrolidinium dimethyl phosphate,,,C[N+]1(CCO)CCCC1.COP(=O)([O-])OC,1-(2-hydroxyethyl)-1-methylpyrrolidinium dimethyl phosphate,AAxEby,CCO,ethanol,AAIsrh,C[N+]1(CCO)CCCC1,COP(=O)([O-])OC,2,,,,2417,False,C[N+]1(CCO)CCCC1.COP(=O)([O-])OC,No changes
Abmnd,303.15,100.0,866.0,Krolikowska et al. (2021b),Liquid,0.0561,1-(2-hydroxyethyl)-1-methylpyrrolidinium dimethyl phosphate,,,C[N+]1(CCO)CCCC1.COP(=O)([O-])OC,1-(2-hydroxyethyl)-1-methylpyrrolidinium dimethyl phosphate,AAxEby,CCO,ethanol,AAIsrh,C[N+]1(CCO)CCCC1,COP(=O)([O-])OC,2,,,,2418,False,C[N+]1(CCO)CCCC1.COP(=O)([O-])OC,No changes
Abmnd,303.15,100.0,925.0,Krolikowska et al. (2021b),Liquid,0.1077,1-(2-hydroxyethyl)-1-methylpyrrolidinium dimethyl phosphate,,,C[N+]1(CCO)CCCC1.COP(=O)([O-])OC,1-(2-hydroxyethyl)-1-methylpyrrolidinium dimethyl phosphate,AAxEby,CCO,ethanol,AAIsrh,C[N+]1(CCO)CCCC1,COP(=O)([O-])OC,2,,,,2419,False,C[N+]1(CCO)CCCC1.COP(=O)([O-])OC,No changes
Abmnd,303.15,100.0,967.0,Krolikowska et al. (2021b),Liquid,0.1523,1-(2-hydroxyethyl)-1-methylpyrrolidinium dimethyl phosphate,,,C[N+]1(CCO)CCCC1.COP(=O)([O-])OC,1-(2-hydroxyethyl)-1-methylpyrrolidinium dimethyl phosphate,AAxEby,CCO,ethanol,AAIsrh,C[N+]1(CCO)CCCC1,COP(=O)([O-])OC,2,,,,2420,False,C[N+]1(CCO)CCCC1.COP(=O)([O-])OC,No changes
Abmnd,303.15,100.0,1009.0,Krolikowska et al. (2021b),Liquid,0.2079,1-(2-hydroxyethyl)-1-methylpyrrolidinium dimethyl phosphate,,,C[N+]1(CCO)CCCC1.COP(=O)([O-])OC,1-(2-hydroxyethyl)-1-methylpyrrolidinium dimethyl phosphate,AAxEby,CCO,ethanol,AAIsrh,C[N+]1(CCO)CCCC1,COP(=O)([O-])OC,2,,,,2421,False,C[N+]1(CCO)CCCC1.COP(=O)([O-])OC,No changes
Abmnd,303.15,100.0,1038.0,Krolikowska et al. (2021b),Liquid,0.2537,1-(2-hydroxyethyl)-1-methylpyrrolidinium dimethyl phosphate,,,C[N+]1(CCO)CCCC1.COP(=O)([O-])OC,1-(2-hydroxyethyl)-1-methylpyrrolidinium dimethyl phosphate,AAxEby,CCO,ethanol,AAIsrh,C[N+]1(CCO)CCCC1,COP(=O)([O-])OC,2,,,,2422,False,C[N+]1(CCO)CCCC1.COP(=O)([O-])OC,No changes
Abmnd,303.15,100.0,1067.0,Krolikowska et al. (2021b),Liquid,0.3084,1-(2-hydroxyethyl)-1-methylpyrrolidinium dimethyl phosphate,,,C[N+]1(CCO)CCCC1.COP(=O)([O-])OC,1-(2-hydroxyethyl)-1-methylpyrrolidinium dimethyl phosphate,AAxEby,CCO,ethanol,AAIsrh,C[N+]1(CCO)CCCC1,COP(=O)([O-])OC,2,,,,2423,False,C[N+]1(CCO)CCCC1.COP(=O)([O-])OC,No changes
Abmnd,303.15,100.0,1107.0,Krolikowska et al. (2021b),Liquid,0.4033,1-(2-hydroxyethyl)-1-methylpyrrolidinium dimethyl phosphate,,,C[N+]1(CCO)CCCC1.COP(=O)([O-])OC,1-(2-hydroxyethyl)-1-methylpyrrolidinium dimethyl phosphate,AAxEby,CCO,ethanol,AAIsrh,C[N+]1(CCO)CCCC1,COP(=O)([O-])OC,2,,,,2424,False,C[N+]1(CCO)CCCC1.COP(=O)([O-])OC,No changes
Abmnd,303.15,100.0,1141.0,Krolikowska et al. (2021b),Liquid,0.5077,1-(2-hydroxyethyl)-1-methylpyrrolidinium dimethyl phosphate,,,C[N+]1(CCO)CCCC1.COP(=O)([O-])OC,1-(2-hydroxyethyl)-1-methylpyrrolidinium dimethyl phosphate,AAxEby,CCO,ethanol,AAIsrh,C[N+]1(CCO)CCCC1,COP(=O)([O-])OC,2,,,,2425,False,C[N+]1(CCO)CCCC1.COP(=O)([O-])OC,No changes
Abmnd,303.15,100.0,1166.0,Krolikowska et al. (2021b),Liquid,0.6042,1-(2-hydroxyethyl)-1-methylpyrrolidinium dimethyl phosphate,,,C[N+]1(CCO)CCCC1.COP(=O)([O-])OC,1-(2-hydroxyethyl)-1-methylpyrrolidinium dimethyl phosphate,AAxEby,CCO,ethanol,AAIsrh,C[N+]1(CCO)CCCC1,COP(=O)([O-])OC,2,,,,2426,False,C[N+]1(CCO)CCCC1.COP(=O)([O-])OC,No changes
Abmnd,303.15,100.0,1187.0,Krolikowska et al. (2021b),Liquid,0.7053,1-(2-hydroxyethyl)-1-methylpyrrolidinium dimethyl phosphate,,,C[N+]1(CCO)CCCC1.COP(=O)([O-])OC,1-(2-hydroxyethyl)-1-methylpyrrolidinium dimethyl phosphate,AAxEby,CCO,ethanol,AAIsrh,C[N+]1(CCO)CCCC1,COP(=O)([O-])OC,2,,,,2427,False,C[N+]1(CCO)CCCC1.COP(=O)([O-])OC,No changes
Abmnd,303.15,100.0,1204.0,Krolikowska et al. (2021b),Liquid,0.8055,1-(2-hydroxyethyl)-1-methylpyrrolidinium dimethyl phosphate,,,C[N+]1(CCO)CCCC1.COP(=O)([O-])OC,1-(2-hydroxyethyl)-1-methylpyrrolidinium dimethyl phosphate,AAxEby,CCO,ethanol,AAIsrh,C[N+]1(CCO)CCCC1,COP(=O)([O-])OC,2,,,,2428,False,C[N+]1(CCO)CCCC1.COP(=O)([O-])OC,No changes
Abmnd,303.15,100.0,1219.0,Krolikowska et al. (2021b),Liquid,0.9053,1-(2-hydroxyethyl)-1-methylpyrrolidinium dimethyl phosphate,,,C[N+]1(CCO)CCCC1.COP(=O)([O-])OC,1-(2-hydroxyethyl)-1-methylpyrrolidinium dimethyl phosphate,AAxEby,CCO,ethanol,AAIsrh,C[N+]1(CCO)CCCC1,COP(=O)([O-])OC,2,,,,2429,False,C[N+]1(CCO)CCCC1.COP(=O)([O-])OC,No changes
Abmnd,303.15,100.0,1231.0,Krolikowska et al. (2021b),Liquid,1.0,1-(2-hydroxyethyl)-1-methylpyrrolidinium dimethyl phosphate,,,C[N+]1(CCO)CCCC1.COP(=O)([O-])OC,1-(2-hydroxyethyl)-1-methylpyrrolidinium dimethyl phosphate,AAxEby,CCO,ethanol,AAIsrh,C[N+]1(CCO)CCCC1,COP(=O)([O-])OC,2,,,,2430,False,C[N+]1(CCO)CCCC1.COP(=O)([O-])OC,No changes
Abmnd,308.15,100.0,776.0,Krolikowska et al. (2021b),Liquid,0.0,1-(2-hydroxyethyl)-1-methylpyrrolidinium dimethyl phosphate,,,C[N+]1(CCO)CCCC1.COP(=O)([O-])OC,1-(2-hydroxyethyl)-1-methylpyrrolidinium dimethyl phosphate,AAxEby,CCO,ethanol,AAIsrh,C[N+]1(CCO)CCCC1,COP(=O)([O-])OC,2,,,,2431,False,C[N+]1(CCO)CCCC1.COP(=O)([O-])OC,No changes
Abmnd,308.15,100.0,862.0,Krolikowska et al. (2021b),Liquid,0.0561,1-(2-hydroxyethyl)-1-methylpyrrolidinium dimethyl phosphate,,,C[N+]1(CCO)CCCC1.COP(=O)([O-])OC,1-(2-hydroxyethyl)-1-methylpyrrolidinium dimethyl phosphate,AAxEby,CCO,ethanol,AAIsrh,C[N+]1(CCO)CCCC1,COP(=O)([O-])OC,2,,,,2432,False,C[N+]1(CCO)CCCC1.COP(=O)([O-])OC,No changes