setid,Temperature (K),Pressure (kPa),Density (kg/m3),reference,phases,Mole fraction,Mole fraction of compound name,Weight fraction,Weight fraction of compound name,IL_SMILES,IL_name,IL_ID,Solvent_SMILES,Solvent_name,Solvent_ID,IL_cation_SMILES,IL_anion_SMILES,IL_component_number,Mole fraction of solvent,IL_MW,Solvent_MW,Record_ID,Contains_Metal,Standardized_IL_SMILES,Changes
IFgxt,313.15,101.0,972.79,Iglesias-Otero et al. (2008b),Liquid,0.1905,1-butyl-3-methylimidazolium methyl sulfate,,,CCCC[n+]1ccn(C)c1.COS(=O)(=O)[O-],1-butyl-3-methylimidazolium methyl sulfate,AAwHNg,CCO,ethanol,AAIsrh,CCCC[n+]1ccn(C)c1,COS(=O)(=O)[O-],2,,,,3171,False,CCCC[n+]1ccn(C)c1.COS(=O)(=O)[O-],No changes
IFgxt,313.15,101.0,1001.63,Iglesias-Otero et al. (2008b),Liquid,0.2357,1-butyl-3-methylimidazolium methyl sulfate,,,CCCC[n+]1ccn(C)c1.COS(=O)(=O)[O-],1-butyl-3-methylimidazolium methyl sulfate,AAwHNg,CCO,ethanol,AAIsrh,CCCC[n+]1ccn(C)c1,COS(=O)(=O)[O-],2,,,,3172,False,CCCC[n+]1ccn(C)c1.COS(=O)(=O)[O-],No changes
IFgxt,313.15,101.0,1022.32,Iglesias-Otero et al. (2008b),Liquid,0.2733,1-butyl-3-methylimidazolium methyl sulfate,,,CCCC[n+]1ccn(C)c1.COS(=O)(=O)[O-],1-butyl-3-methylimidazolium methyl sulfate,AAwHNg,CCO,ethanol,AAIsrh,CCCC[n+]1ccn(C)c1,COS(=O)(=O)[O-],2,,,,3173,False,CCCC[n+]1ccn(C)c1.COS(=O)(=O)[O-],No changes
IFgxt,313.15,101.0,1058.67,Iglesias-Otero et al. (2008b),Liquid,0.3516,1-butyl-3-methylimidazolium methyl sulfate,,,CCCC[n+]1ccn(C)c1.COS(=O)(=O)[O-],1-butyl-3-methylimidazolium methyl sulfate,AAwHNg,CCO,ethanol,AAIsrh,CCCC[n+]1ccn(C)c1,COS(=O)(=O)[O-],2,,,,3174,False,CCCC[n+]1ccn(C)c1.COS(=O)(=O)[O-],No changes
IFgxt,313.15,101.0,1090.57,Iglesias-Otero et al. (2008b),Liquid,0.4381,1-butyl-3-methylimidazolium methyl sulfate,,,CCCC[n+]1ccn(C)c1.COS(=O)(=O)[O-],1-butyl-3-methylimidazolium methyl sulfate,AAwHNg,CCO,ethanol,AAIsrh,CCCC[n+]1ccn(C)c1,COS(=O)(=O)[O-],2,,,,3175,False,CCCC[n+]1ccn(C)c1.COS(=O)(=O)[O-],No changes
IFgxt,313.15,101.0,1118.55,Iglesias-Otero et al. (2008b),Liquid,0.5335,1-butyl-3-methylimidazolium methyl sulfate,,,CCCC[n+]1ccn(C)c1.COS(=O)(=O)[O-],1-butyl-3-methylimidazolium methyl sulfate,AAwHNg,CCO,ethanol,AAIsrh,CCCC[n+]1ccn(C)c1,COS(=O)(=O)[O-],2,,,,3176,False,CCCC[n+]1ccn(C)c1.COS(=O)(=O)[O-],No changes
IFgxt,313.15,101.0,1127.99,Iglesias-Otero et al. (2008b),Liquid,0.5712,1-butyl-3-methylimidazolium methyl sulfate,,,CCCC[n+]1ccn(C)c1.COS(=O)(=O)[O-],1-butyl-3-methylimidazolium methyl sulfate,AAwHNg,CCO,ethanol,AAIsrh,CCCC[n+]1ccn(C)c1,COS(=O)(=O)[O-],2,,,,3177,False,CCCC[n+]1ccn(C)c1.COS(=O)(=O)[O-],No changes
IFgxt,313.15,101.0,1150.1,Iglesias-Otero et al. (2008b),Liquid,0.6742,1-butyl-3-methylimidazolium methyl sulfate,,,CCCC[n+]1ccn(C)c1.COS(=O)(=O)[O-],1-butyl-3-methylimidazolium methyl sulfate,AAwHNg,CCO,ethanol,AAIsrh,CCCC[n+]1ccn(C)c1,COS(=O)(=O)[O-],2,,,,3178,False,CCCC[n+]1ccn(C)c1.COS(=O)(=O)[O-],No changes
IFgxt,313.15,101.0,1166.61,Iglesias-Otero et al. (2008b),Liquid,0.7665,1-butyl-3-methylimidazolium methyl sulfate,,,CCCC[n+]1ccn(C)c1.COS(=O)(=O)[O-],1-butyl-3-methylimidazolium methyl sulfate,AAwHNg,CCO,ethanol,AAIsrh,CCCC[n+]1ccn(C)c1,COS(=O)(=O)[O-],2,,,,3179,False,CCCC[n+]1ccn(C)c1.COS(=O)(=O)[O-],No changes
IFgxt,313.15,101.0,1178.85,Iglesias-Otero et al. (2008b),Liquid,0.8482,1-butyl-3-methylimidazolium methyl sulfate,,,CCCC[n+]1ccn(C)c1.COS(=O)(=O)[O-],1-butyl-3-methylimidazolium methyl sulfate,AAwHNg,CCO,ethanol,AAIsrh,CCCC[n+]1ccn(C)c1,COS(=O)(=O)[O-],2,,,,3180,False,CCCC[n+]1ccn(C)c1.COS(=O)(=O)[O-],No changes
IFgxt,313.15,101.0,1189.08,Iglesias-Otero et al. (2008b),Liquid,0.9248,1-butyl-3-methylimidazolium methyl sulfate,,,CCCC[n+]1ccn(C)c1.COS(=O)(=O)[O-],1-butyl-3-methylimidazolium methyl sulfate,AAwHNg,CCO,ethanol,AAIsrh,CCCC[n+]1ccn(C)c1,COS(=O)(=O)[O-],2,,,,3181,False,CCCC[n+]1ccn(C)c1.COS(=O)(=O)[O-],No changes
IFgxt,313.15,101.0,1197.92,Iglesias-Otero et al. (2008b),Liquid,1.0,1-butyl-3-methylimidazolium methyl sulfate,,,CCCC[n+]1ccn(C)c1.COS(=O)(=O)[O-],1-butyl-3-methylimidazolium methyl sulfate,AAwHNg,CCO,ethanol,AAIsrh,CCCC[n+]1ccn(C)c1,COS(=O)(=O)[O-],2,,,,3182,False,CCCC[n+]1ccn(C)c1.COS(=O)(=O)[O-],No changes
IFgxt,323.15,101.0,763.3,Iglesias-Otero et al. (2008b),Liquid,0.0,1-butyl-3-methylimidazolium methyl sulfate,,,CCCC[n+]1ccn(C)c1.COS(=O)(=O)[O-],1-butyl-3-methylimidazolium methyl sulfate,AAwHNg,CCO,ethanol,AAIsrh,CCCC[n+]1ccn(C)c1,COS(=O)(=O)[O-],2,,,,3183,False,CCCC[n+]1ccn(C)c1.COS(=O)(=O)[O-],No changes