setid,Temperature (K),Pressure (kPa),Density (kg/m3),reference,phases,Mole fraction,Mole fraction of compound name,Weight fraction,Weight fraction of compound name,IL_SMILES,IL_name,IL_ID,Solvent_SMILES,Solvent_name,Solvent_ID,IL_cation_SMILES,IL_anion_SMILES,IL_component_number,Mole fraction of solvent,IL_MW,Solvent_MW,Record_ID,Contains_Metal,Standardized_IL_SMILES,Changes
IrtKT,293.15,100.0,1050.0,Wei et al. (2022a),Liquid,0.3,1-allyl-3-methylimidazolium dicyanamide,,,C=CC[n+]1ccn(C)c1.N#C[N-]C#N,1-allyl-3-methylimidazolium dicyanamide,AAkUkb,CCO,ethanol,AAIsrh,C=CC[n+]1ccn(C)c1,N#C[N-]C#N,2,,,,3030,False,C=CC[n+]1ccn(C)c1.N#C[N-]C#N,No changes
IrtKT,298.15,100.0,1050.0,Wei et al. (2022a),Liquid,0.3,1-allyl-3-methylimidazolium dicyanamide,,,C=CC[n+]1ccn(C)c1.N#C[N-]C#N,1-allyl-3-methylimidazolium dicyanamide,AAkUkb,CCO,ethanol,AAIsrh,C=CC[n+]1ccn(C)c1,N#C[N-]C#N,2,,,,3031,False,C=CC[n+]1ccn(C)c1.N#C[N-]C#N,No changes
IrtKT,303.15,100.0,1040.0,Wei et al. (2022a),Liquid,0.3,1-allyl-3-methylimidazolium dicyanamide,,,C=CC[n+]1ccn(C)c1.N#C[N-]C#N,1-allyl-3-methylimidazolium dicyanamide,AAkUkb,CCO,ethanol,AAIsrh,C=CC[n+]1ccn(C)c1,N#C[N-]C#N,2,,,,3032,False,C=CC[n+]1ccn(C)c1.N#C[N-]C#N,No changes
IrtKT,308.15,100.0,1040.0,Wei et al. (2022a),Liquid,0.3,1-allyl-3-methylimidazolium dicyanamide,,,C=CC[n+]1ccn(C)c1.N#C[N-]C#N,1-allyl-3-methylimidazolium dicyanamide,AAkUkb,CCO,ethanol,AAIsrh,C=CC[n+]1ccn(C)c1,N#C[N-]C#N,2,,,,3033,False,C=CC[n+]1ccn(C)c1.N#C[N-]C#N,No changes
IrtKT,313.15,100.0,1040.0,Wei et al. (2022a),Liquid,0.3,1-allyl-3-methylimidazolium dicyanamide,,,C=CC[n+]1ccn(C)c1.N#C[N-]C#N,1-allyl-3-methylimidazolium dicyanamide,AAkUkb,CCO,ethanol,AAIsrh,C=CC[n+]1ccn(C)c1,N#C[N-]C#N,2,,,,3034,False,C=CC[n+]1ccn(C)c1.N#C[N-]C#N,No changes
IrtKT,318.15,100.0,1030.0,Wei et al. (2022a),Liquid,0.3,1-allyl-3-methylimidazolium dicyanamide,,,C=CC[n+]1ccn(C)c1.N#C[N-]C#N,1-allyl-3-methylimidazolium dicyanamide,AAkUkb,CCO,ethanol,AAIsrh,C=CC[n+]1ccn(C)c1,N#C[N-]C#N,2,,,,3035,False,C=CC[n+]1ccn(C)c1.N#C[N-]C#N,No changes
IrtKT,288.15,100.0,1110.0,Wei et al. (2022a),Liquid,0.4002,1-allyl-3-methylimidazolium dicyanamide,,,C=CC[n+]1ccn(C)c1.N#C[N-]C#N,1-allyl-3-methylimidazolium dicyanamide,AAkUkb,CCO,ethanol,AAIsrh,C=CC[n+]1ccn(C)c1,N#C[N-]C#N,2,,,,3036,False,C=CC[n+]1ccn(C)c1.N#C[N-]C#N,No changes
IrtKT,293.15,100.0,1100.0,Wei et al. (2022a),Liquid,0.4002,1-allyl-3-methylimidazolium dicyanamide,,,C=CC[n+]1ccn(C)c1.N#C[N-]C#N,1-allyl-3-methylimidazolium dicyanamide,AAkUkb,CCO,ethanol,AAIsrh,C=CC[n+]1ccn(C)c1,N#C[N-]C#N,2,,,,3037,False,C=CC[n+]1ccn(C)c1.N#C[N-]C#N,No changes
IrtKT,298.15,100.0,1100.0,Wei et al. (2022a),Liquid,0.4002,1-allyl-3-methylimidazolium dicyanamide,,,C=CC[n+]1ccn(C)c1.N#C[N-]C#N,1-allyl-3-methylimidazolium dicyanamide,AAkUkb,CCO,ethanol,AAIsrh,C=CC[n+]1ccn(C)c1,N#C[N-]C#N,2,,,,3038,False,C=CC[n+]1ccn(C)c1.N#C[N-]C#N,No changes
IrtKT,303.15,100.0,1090.0,Wei et al. (2022a),Liquid,0.4002,1-allyl-3-methylimidazolium dicyanamide,,,C=CC[n+]1ccn(C)c1.N#C[N-]C#N,1-allyl-3-methylimidazolium dicyanamide,AAkUkb,CCO,ethanol,AAIsrh,C=CC[n+]1ccn(C)c1,N#C[N-]C#N,2,,,,3039,False,C=CC[n+]1ccn(C)c1.N#C[N-]C#N,No changes
IrtKT,308.15,100.0,1090.0,Wei et al. (2022a),Liquid,0.4002,1-allyl-3-methylimidazolium dicyanamide,,,C=CC[n+]1ccn(C)c1.N#C[N-]C#N,1-allyl-3-methylimidazolium dicyanamide,AAkUkb,CCO,ethanol,AAIsrh,C=CC[n+]1ccn(C)c1,N#C[N-]C#N,2,,,,3040,False,C=CC[n+]1ccn(C)c1.N#C[N-]C#N,No changes
IrtKT,313.15,100.0,1090.0,Wei et al. (2022a),Liquid,0.4002,1-allyl-3-methylimidazolium dicyanamide,,,C=CC[n+]1ccn(C)c1.N#C[N-]C#N,1-allyl-3-methylimidazolium dicyanamide,AAkUkb,CCO,ethanol,AAIsrh,C=CC[n+]1ccn(C)c1,N#C[N-]C#N,2,,,,3041,False,C=CC[n+]1ccn(C)c1.N#C[N-]C#N,No changes
IrtKT,318.15,100.0,1080.0,Wei et al. (2022a),Liquid,0.4002,1-allyl-3-methylimidazolium dicyanamide,,,C=CC[n+]1ccn(C)c1.N#C[N-]C#N,1-allyl-3-methylimidazolium dicyanamide,AAkUkb,CCO,ethanol,AAIsrh,C=CC[n+]1ccn(C)c1,N#C[N-]C#N,2,,,,3042,False,C=CC[n+]1ccn(C)c1.N#C[N-]C#N,No changes
IrtKT,288.15,100.0,1140.0,Wei et al. (2022a),Liquid,0.5002,1-allyl-3-methylimidazolium dicyanamide,,,C=CC[n+]1ccn(C)c1.N#C[N-]C#N,1-allyl-3-methylimidazolium dicyanamide,AAkUkb,CCO,ethanol,AAIsrh,C=CC[n+]1ccn(C)c1,N#C[N-]C#N,2,,,,3043,False,C=CC[n+]1ccn(C)c1.N#C[N-]C#N,No changes
IrtKT,293.15,100.0,1140.0,Wei et al. (2022a),Liquid,0.5002,1-allyl-3-methylimidazolium dicyanamide,,,C=CC[n+]1ccn(C)c1.N#C[N-]C#N,1-allyl-3-methylimidazolium dicyanamide,AAkUkb,CCO,ethanol,AAIsrh,C=CC[n+]1ccn(C)c1,N#C[N-]C#N,2,,,,3044,False,C=CC[n+]1ccn(C)c1.N#C[N-]C#N,No changes
IrtKT,298.15,100.0,1130.0,Wei et al. (2022a),Liquid,0.5002,1-allyl-3-methylimidazolium dicyanamide,,,C=CC[n+]1ccn(C)c1.N#C[N-]C#N,1-allyl-3-methylimidazolium dicyanamide,AAkUkb,CCO,ethanol,AAIsrh,C=CC[n+]1ccn(C)c1,N#C[N-]C#N,2,,,,3045,False,C=CC[n+]1ccn(C)c1.N#C[N-]C#N,No changes
IrtKT,303.15,100.0,1130.0,Wei et al. (2022a),Liquid,0.5002,1-allyl-3-methylimidazolium dicyanamide,,,C=CC[n+]1ccn(C)c1.N#C[N-]C#N,1-allyl-3-methylimidazolium dicyanamide,AAkUkb,CCO,ethanol,AAIsrh,C=CC[n+]1ccn(C)c1,N#C[N-]C#N,2,,,,3046,False,C=CC[n+]1ccn(C)c1.N#C[N-]C#N,No changes
IrtKT,308.15,100.0,1130.0,Wei et al. (2022a),Liquid,0.5002,1-allyl-3-methylimidazolium dicyanamide,,,C=CC[n+]1ccn(C)c1.N#C[N-]C#N,1-allyl-3-methylimidazolium dicyanamide,AAkUkb,CCO,ethanol,AAIsrh,C=CC[n+]1ccn(C)c1,N#C[N-]C#N,2,,,,3047,False,C=CC[n+]1ccn(C)c1.N#C[N-]C#N,No changes
IrtKT,313.15,100.0,1120.0,Wei et al. (2022a),Liquid,0.5002,1-allyl-3-methylimidazolium dicyanamide,,,C=CC[n+]1ccn(C)c1.N#C[N-]C#N,1-allyl-3-methylimidazolium dicyanamide,AAkUkb,CCO,ethanol,AAIsrh,C=CC[n+]1ccn(C)c1,N#C[N-]C#N,2,,,,3048,False,C=CC[n+]1ccn(C)c1.N#C[N-]C#N,No changes
IrtKT,318.15,100.0,1120.0,Wei et al. (2022a),Liquid,0.5002,1-allyl-3-methylimidazolium dicyanamide,,,C=CC[n+]1ccn(C)c1.N#C[N-]C#N,1-allyl-3-methylimidazolium dicyanamide,AAkUkb,CCO,ethanol,AAIsrh,C=CC[n+]1ccn(C)c1,N#C[N-]C#N,2,,,,3049,False,C=CC[n+]1ccn(C)c1.N#C[N-]C#N,No changes
IrtKT,288.15,100.0,1180.0,Wei et al. (2022a),Liquid,0.5998,1-allyl-3-methylimidazolium dicyanamide,,,C=CC[n+]1ccn(C)c1.N#C[N-]C#N,1-allyl-3-methylimidazolium dicyanamide,AAkUkb,CCO,ethanol,AAIsrh,C=CC[n+]1ccn(C)c1,N#C[N-]C#N,2,,,,3050,False,C=CC[n+]1ccn(C)c1.N#C[N-]C#N,No changes
IrtKT,293.15,100.0,1170.0,Wei et al. (2022a),Liquid,0.5998,1-allyl-3-methylimidazolium dicyanamide,,,C=CC[n+]1ccn(C)c1.N#C[N-]C#N,1-allyl-3-methylimidazolium dicyanamide,AAkUkb,CCO,ethanol,AAIsrh,C=CC[n+]1ccn(C)c1,N#C[N-]C#N,2,,,,3051,False,C=CC[n+]1ccn(C)c1.N#C[N-]C#N,No changes
IrtKT,298.15,100.0,1170.0,Wei et al. (2022a),Liquid,0.5998,1-allyl-3-methylimidazolium dicyanamide,,,C=CC[n+]1ccn(C)c1.N#C[N-]C#N,1-allyl-3-methylimidazolium dicyanamide,AAkUkb,CCO,ethanol,AAIsrh,C=CC[n+]1ccn(C)c1,N#C[N-]C#N,2,,,,3052,False,C=CC[n+]1ccn(C)c1.N#C[N-]C#N,No changes
IrtKT,303.15,100.0,1170.0,Wei et al. (2022a),Liquid,0.5998,1-allyl-3-methylimidazolium dicyanamide,,,C=CC[n+]1ccn(C)c1.N#C[N-]C#N,1-allyl-3-methylimidazolium dicyanamide,AAkUkb,CCO,ethanol,AAIsrh,C=CC[n+]1ccn(C)c1,N#C[N-]C#N,2,,,,3053,False,C=CC[n+]1ccn(C)c1.N#C[N-]C#N,No changes
IrtKT,308.15,100.0,1160.0,Wei et al. (2022a),Liquid,0.5998,1-allyl-3-methylimidazolium dicyanamide,,,C=CC[n+]1ccn(C)c1.N#C[N-]C#N,1-allyl-3-methylimidazolium dicyanamide,AAkUkb,CCO,ethanol,AAIsrh,C=CC[n+]1ccn(C)c1,N#C[N-]C#N,2,,,,3054,False,C=CC[n+]1ccn(C)c1.N#C[N-]C#N,No changes
IrtKT,313.15,100.0,1160.0,Wei et al. (2022a),Liquid,0.5998,1-allyl-3-methylimidazolium dicyanamide,,,C=CC[n+]1ccn(C)c1.N#C[N-]C#N,1-allyl-3-methylimidazolium dicyanamide,AAkUkb,CCO,ethanol,AAIsrh,C=CC[n+]1ccn(C)c1,N#C[N-]C#N,2,,,,3055,False,C=CC[n+]1ccn(C)c1.N#C[N-]C#N,No changes
IrtKT,318.15,100.0,1150.0,Wei et al. (2022a),Liquid,0.5998,1-allyl-3-methylimidazolium dicyanamide,,,C=CC[n+]1ccn(C)c1.N#C[N-]C#N,1-allyl-3-methylimidazolium dicyanamide,AAkUkb,CCO,ethanol,AAIsrh,C=CC[n+]1ccn(C)c1,N#C[N-]C#N,2,,,,3056,False,C=CC[n+]1ccn(C)c1.N#C[N-]C#N,No changes
IrtKT,288.15,100.0,1200.0,Wei et al. (2022a),Liquid,0.7005,1-allyl-3-methylimidazolium dicyanamide,,,C=CC[n+]1ccn(C)c1.N#C[N-]C#N,1-allyl-3-methylimidazolium dicyanamide,AAkUkb,CCO,ethanol,AAIsrh,C=CC[n+]1ccn(C)c1,N#C[N-]C#N,2,,,,3057,False,C=CC[n+]1ccn(C)c1.N#C[N-]C#N,No changes
IrtKT,293.15,100.0,1200.0,Wei et al. (2022a),Liquid,0.7005,1-allyl-3-methylimidazolium dicyanamide,,,C=CC[n+]1ccn(C)c1.N#C[N-]C#N,1-allyl-3-methylimidazolium dicyanamide,AAkUkb,CCO,ethanol,AAIsrh,C=CC[n+]1ccn(C)c1,N#C[N-]C#N,2,,,,3058,False,C=CC[n+]1ccn(C)c1.N#C[N-]C#N,No changes
IrtKT,298.15,100.0,1190.0,Wei et al. (2022a),Liquid,0.7005,1-allyl-3-methylimidazolium dicyanamide,,,C=CC[n+]1ccn(C)c1.N#C[N-]C#N,1-allyl-3-methylimidazolium dicyanamide,AAkUkb,CCO,ethanol,AAIsrh,C=CC[n+]1ccn(C)c1,N#C[N-]C#N,2,,,,3059,False,C=CC[n+]1ccn(C)c1.N#C[N-]C#N,No changes
IrtKT,303.15,100.0,1190.0,Wei et al. (2022a),Liquid,0.7005,1-allyl-3-methylimidazolium dicyanamide,,,C=CC[n+]1ccn(C)c1.N#C[N-]C#N,1-allyl-3-methylimidazolium dicyanamide,AAkUkb,CCO,ethanol,AAIsrh,C=CC[n+]1ccn(C)c1,N#C[N-]C#N,2,,,,3060,False,C=CC[n+]1ccn(C)c1.N#C[N-]C#N,No changes
IrtKT,308.15,100.0,1190.0,Wei et al. (2022a),Liquid,0.7005,1-allyl-3-methylimidazolium dicyanamide,,,C=CC[n+]1ccn(C)c1.N#C[N-]C#N,1-allyl-3-methylimidazolium dicyanamide,AAkUkb,CCO,ethanol,AAIsrh,C=CC[n+]1ccn(C)c1,N#C[N-]C#N,2,,,,3061,False,C=CC[n+]1ccn(C)c1.N#C[N-]C#N,No changes
IrtKT,313.15,100.0,1180.0,Wei et al. (2022a),Liquid,0.7005,1-allyl-3-methylimidazolium dicyanamide,,,C=CC[n+]1ccn(C)c1.N#C[N-]C#N,1-allyl-3-methylimidazolium dicyanamide,AAkUkb,CCO,ethanol,AAIsrh,C=CC[n+]1ccn(C)c1,N#C[N-]C#N,2,,,,3062,False,C=CC[n+]1ccn(C)c1.N#C[N-]C#N,No changes
IrtKT,318.15,100.0,1180.0,Wei et al. (2022a),Liquid,0.7005,1-allyl-3-methylimidazolium dicyanamide,,,C=CC[n+]1ccn(C)c1.N#C[N-]C#N,1-allyl-3-methylimidazolium dicyanamide,AAkUkb,CCO,ethanol,AAIsrh,C=CC[n+]1ccn(C)c1,N#C[N-]C#N,2,,,,3063,False,C=CC[n+]1ccn(C)c1.N#C[N-]C#N,No changes
IrtKT,288.15,100.0,1230.0,Wei et al. (2022a),Liquid,0.8005,1-allyl-3-methylimidazolium dicyanamide,,,C=CC[n+]1ccn(C)c1.N#C[N-]C#N,1-allyl-3-methylimidazolium dicyanamide,AAkUkb,CCO,ethanol,AAIsrh,C=CC[n+]1ccn(C)c1,N#C[N-]C#N,2,,,,3064,False,C=CC[n+]1ccn(C)c1.N#C[N-]C#N,No changes
IrtKT,293.15,100.0,1220.0,Wei et al. (2022a),Liquid,0.8005,1-allyl-3-methylimidazolium dicyanamide,,,C=CC[n+]1ccn(C)c1.N#C[N-]C#N,1-allyl-3-methylimidazolium dicyanamide,AAkUkb,CCO,ethanol,AAIsrh,C=CC[n+]1ccn(C)c1,N#C[N-]C#N,2,,,,3065,False,C=CC[n+]1ccn(C)c1.N#C[N-]C#N,No changes
IrtKT,298.15,100.0,1220.0,Wei et al. (2022a),Liquid,0.8005,1-allyl-3-methylimidazolium dicyanamide,,,C=CC[n+]1ccn(C)c1.N#C[N-]C#N,1-allyl-3-methylimidazolium dicyanamide,AAkUkb,CCO,ethanol,AAIsrh,C=CC[n+]1ccn(C)c1,N#C[N-]C#N,2,,,,3066,False,C=CC[n+]1ccn(C)c1.N#C[N-]C#N,No changes
IrtKT,303.15,100.0,1210.0,Wei et al. (2022a),Liquid,0.8005,1-allyl-3-methylimidazolium dicyanamide,,,C=CC[n+]1ccn(C)c1.N#C[N-]C#N,1-allyl-3-methylimidazolium dicyanamide,AAkUkb,CCO,ethanol,AAIsrh,C=CC[n+]1ccn(C)c1,N#C[N-]C#N,2,,,,3067,False,C=CC[n+]1ccn(C)c1.N#C[N-]C#N,No changes
IrtKT,308.15,100.0,1210.0,Wei et al. (2022a),Liquid,0.8005,1-allyl-3-methylimidazolium dicyanamide,,,C=CC[n+]1ccn(C)c1.N#C[N-]C#N,1-allyl-3-methylimidazolium dicyanamide,AAkUkb,CCO,ethanol,AAIsrh,C=CC[n+]1ccn(C)c1,N#C[N-]C#N,2,,,,3068,False,C=CC[n+]1ccn(C)c1.N#C[N-]C#N,No changes
IrtKT,313.15,100.0,1210.0,Wei et al. (2022a),Liquid,0.8005,1-allyl-3-methylimidazolium dicyanamide,,,C=CC[n+]1ccn(C)c1.N#C[N-]C#N,1-allyl-3-methylimidazolium dicyanamide,AAkUkb,CCO,ethanol,AAIsrh,C=CC[n+]1ccn(C)c1,N#C[N-]C#N,2,,,,3069,False,C=CC[n+]1ccn(C)c1.N#C[N-]C#N,No changes
IrtKT,318.15,100.0,1200.0,Wei et al. (2022a),Liquid,0.8005,1-allyl-3-methylimidazolium dicyanamide,,,C=CC[n+]1ccn(C)c1.N#C[N-]C#N,1-allyl-3-methylimidazolium dicyanamide,AAkUkb,CCO,ethanol,AAIsrh,C=CC[n+]1ccn(C)c1,N#C[N-]C#N,2,,,,3070,False,C=CC[n+]1ccn(C)c1.N#C[N-]C#N,No changes
IrtKT,288.15,100.0,1240.0,Wei et al. (2022a),Liquid,0.9001,1-allyl-3-methylimidazolium dicyanamide,,,C=CC[n+]1ccn(C)c1.N#C[N-]C#N,1-allyl-3-methylimidazolium dicyanamide,AAkUkb,CCO,ethanol,AAIsrh,C=CC[n+]1ccn(C)c1,N#C[N-]C#N,2,,,,3071,False,C=CC[n+]1ccn(C)c1.N#C[N-]C#N,No changes
IrtKT,293.15,100.0,1240.0,Wei et al. (2022a),Liquid,0.9001,1-allyl-3-methylimidazolium dicyanamide,,,C=CC[n+]1ccn(C)c1.N#C[N-]C#N,1-allyl-3-methylimidazolium dicyanamide,AAkUkb,CCO,ethanol,AAIsrh,C=CC[n+]1ccn(C)c1,N#C[N-]C#N,2,,,,3072,False,C=CC[n+]1ccn(C)c1.N#C[N-]C#N,No changes
IrtKT,298.15,100.0,1240.0,Wei et al. (2022a),Liquid,0.9001,1-allyl-3-methylimidazolium dicyanamide,,,C=CC[n+]1ccn(C)c1.N#C[N-]C#N,1-allyl-3-methylimidazolium dicyanamide,AAkUkb,CCO,ethanol,AAIsrh,C=CC[n+]1ccn(C)c1,N#C[N-]C#N,2,,,,3073,False,C=CC[n+]1ccn(C)c1.N#C[N-]C#N,No changes
IrtKT,303.15,100.0,1230.0,Wei et al. (2022a),Liquid,0.9001,1-allyl-3-methylimidazolium dicyanamide,,,C=CC[n+]1ccn(C)c1.N#C[N-]C#N,1-allyl-3-methylimidazolium dicyanamide,AAkUkb,CCO,ethanol,AAIsrh,C=CC[n+]1ccn(C)c1,N#C[N-]C#N,2,,,,3074,False,C=CC[n+]1ccn(C)c1.N#C[N-]C#N,No changes
IrtKT,308.15,100.0,1230.0,Wei et al. (2022a),Liquid,0.9001,1-allyl-3-methylimidazolium dicyanamide,,,C=CC[n+]1ccn(C)c1.N#C[N-]C#N,1-allyl-3-methylimidazolium dicyanamide,AAkUkb,CCO,ethanol,AAIsrh,C=CC[n+]1ccn(C)c1,N#C[N-]C#N,2,,,,3075,False,C=CC[n+]1ccn(C)c1.N#C[N-]C#N,No changes
IrtKT,313.15,100.0,1230.0,Wei et al. (2022a),Liquid,0.9001,1-allyl-3-methylimidazolium dicyanamide,,,C=CC[n+]1ccn(C)c1.N#C[N-]C#N,1-allyl-3-methylimidazolium dicyanamide,AAkUkb,CCO,ethanol,AAIsrh,C=CC[n+]1ccn(C)c1,N#C[N-]C#N,2,,,,3076,False,C=CC[n+]1ccn(C)c1.N#C[N-]C#N,No changes
IrtKT,318.15,100.0,1220.0,Wei et al. (2022a),Liquid,0.9001,1-allyl-3-methylimidazolium dicyanamide,,,C=CC[n+]1ccn(C)c1.N#C[N-]C#N,1-allyl-3-methylimidazolium dicyanamide,AAkUkb,CCO,ethanol,AAIsrh,C=CC[n+]1ccn(C)c1,N#C[N-]C#N,2,,,,3077,False,C=CC[n+]1ccn(C)c1.N#C[N-]C#N,No changes
IrtKT,288.15,100.0,1260.0,Wei et al. (2022a),Liquid,1.0,1-allyl-3-methylimidazolium dicyanamide,,,C=CC[n+]1ccn(C)c1.N#C[N-]C#N,1-allyl-3-methylimidazolium dicyanamide,AAkUkb,CCO,ethanol,AAIsrh,C=CC[n+]1ccn(C)c1,N#C[N-]C#N,2,,,,3078,False,C=CC[n+]1ccn(C)c1.N#C[N-]C#N,No changes
IrtKT,293.15,100.0,1260.0,Wei et al. (2022a),Liquid,1.0,1-allyl-3-methylimidazolium dicyanamide,,,C=CC[n+]1ccn(C)c1.N#C[N-]C#N,1-allyl-3-methylimidazolium dicyanamide,AAkUkb,CCO,ethanol,AAIsrh,C=CC[n+]1ccn(C)c1,N#C[N-]C#N,2,,,,3079,False,C=CC[n+]1ccn(C)c1.N#C[N-]C#N,No changes
IrtKT,298.15,100.0,1250.0,Wei et al. (2022a),Liquid,1.0,1-allyl-3-methylimidazolium dicyanamide,,,C=CC[n+]1ccn(C)c1.N#C[N-]C#N,1-allyl-3-methylimidazolium dicyanamide,AAkUkb,CCO,ethanol,AAIsrh,C=CC[n+]1ccn(C)c1,N#C[N-]C#N,2,,,,3080,False,C=CC[n+]1ccn(C)c1.N#C[N-]C#N,No changes
IrtKT,303.15,100.0,1250.0,Wei et al. (2022a),Liquid,1.0,1-allyl-3-methylimidazolium dicyanamide,,,C=CC[n+]1ccn(C)c1.N#C[N-]C#N,1-allyl-3-methylimidazolium dicyanamide,AAkUkb,CCO,ethanol,AAIsrh,C=CC[n+]1ccn(C)c1,N#C[N-]C#N,2,,,,3081,False,C=CC[n+]1ccn(C)c1.N#C[N-]C#N,No changes
IrtKT,308.15,100.0,1250.0,Wei et al. (2022a),Liquid,1.0,1-allyl-3-methylimidazolium dicyanamide,,,C=CC[n+]1ccn(C)c1.N#C[N-]C#N,1-allyl-3-methylimidazolium dicyanamide,AAkUkb,CCO,ethanol,AAIsrh,C=CC[n+]1ccn(C)c1,N#C[N-]C#N,2,,,,3082,False,C=CC[n+]1ccn(C)c1.N#C[N-]C#N,No changes
IrtKT,313.15,100.0,1240.0,Wei et al. (2022a),Liquid,1.0,1-allyl-3-methylimidazolium dicyanamide,,,C=CC[n+]1ccn(C)c1.N#C[N-]C#N,1-allyl-3-methylimidazolium dicyanamide,AAkUkb,CCO,ethanol,AAIsrh,C=CC[n+]1ccn(C)c1,N#C[N-]C#N,2,,,,3083,False,C=CC[n+]1ccn(C)c1.N#C[N-]C#N,No changes
IrtKT,318.15,100.0,1240.0,Wei et al. (2022a),Liquid,1.0,1-allyl-3-methylimidazolium dicyanamide,,,C=CC[n+]1ccn(C)c1.N#C[N-]C#N,1-allyl-3-methylimidazolium dicyanamide,AAkUkb,CCO,ethanol,AAIsrh,C=CC[n+]1ccn(C)c1,N#C[N-]C#N,2,,,,3084,False,C=CC[n+]1ccn(C)c1.N#C[N-]C#N,No changes
AZGuM,293.15,101.0,789.5,Xu et al. (2013a),Liquid,0.0,n-butylammonium nitrate,,,CCCC[NH3+].O=[N+]([O-])[O-],n-butylammonium nitrate,AAaJgU,CCO,ethanol,AAIsrh,CCCC[NH3+],O=[N+]([O-])[O-],2,,,,3085,False,CCCC[NH3+].O=[N+]([O-])[O-],No changes
AZGuM,293.15,101.0,858.45,Xu et al. (2013a),Liquid,0.0995,n-butylammonium nitrate,,,CCCC[NH3+].O=[N+]([O-])[O-],n-butylammonium nitrate,AAaJgU,CCO,ethanol,AAIsrh,CCCC[NH3+],O=[N+]([O-])[O-],2,,,,3086,False,CCCC[NH3+].O=[N+]([O-])[O-],No changes
AZGuM,293.15,101.0,910.07,Xu et al. (2013a),Liquid,0.1997,n-butylammonium nitrate,,,CCCC[NH3+].O=[N+]([O-])[O-],n-butylammonium nitrate,AAaJgU,CCO,ethanol,AAIsrh,CCCC[NH3+],O=[N+]([O-])[O-],2,,,,3087,False,CCCC[NH3+].O=[N+]([O-])[O-],No changes
AZGuM,293.15,101.0,951.56,Xu et al. (2013a),Liquid,0.2999,n-butylammonium nitrate,,,CCCC[NH3+].O=[N+]([O-])[O-],n-butylammonium nitrate,AAaJgU,CCO,ethanol,AAIsrh,CCCC[NH3+],O=[N+]([O-])[O-],2,,,,3088,False,CCCC[NH3+].O=[N+]([O-])[O-],No changes
AZGuM,293.15,101.0,985.07,Xu et al. (2013a),Liquid,0.3998,n-butylammonium nitrate,,,CCCC[NH3+].O=[N+]([O-])[O-],n-butylammonium nitrate,AAaJgU,CCO,ethanol,AAIsrh,CCCC[NH3+],O=[N+]([O-])[O-],2,,,,3089,False,CCCC[NH3+].O=[N+]([O-])[O-],No changes
AZGuM,293.15,101.0,1012.9,Xu et al. (2013a),Liquid,0.5005,n-butylammonium nitrate,,,CCCC[NH3+].O=[N+]([O-])[O-],n-butylammonium nitrate,AAaJgU,CCO,ethanol,AAIsrh,CCCC[NH3+],O=[N+]([O-])[O-],2,,,,3090,False,CCCC[NH3+].O=[N+]([O-])[O-],No changes
AZGuM,293.15,101.0,1047.6,Xu et al. (2013a),Liquid,0.6501,n-butylammonium nitrate,,,CCCC[NH3+].O=[N+]([O-])[O-],n-butylammonium nitrate,AAaJgU,CCO,ethanol,AAIsrh,CCCC[NH3+],O=[N+]([O-])[O-],2,,,,3091,False,CCCC[NH3+].O=[N+]([O-])[O-],No changes
AZGuM,293.15,101.0,1075.6,Xu et al. (2013a),Liquid,0.8003,n-butylammonium nitrate,,,CCCC[NH3+].O=[N+]([O-])[O-],n-butylammonium nitrate,AAaJgU,CCO,ethanol,AAIsrh,CCCC[NH3+],O=[N+]([O-])[O-],2,,,,3092,False,CCCC[NH3+].O=[N+]([O-])[O-],No changes
AZGuM,293.15,101.0,1090.9,Xu et al. (2013a),Liquid,0.8989,n-butylammonium nitrate,,,CCCC[NH3+].O=[N+]([O-])[O-],n-butylammonium nitrate,AAaJgU,CCO,ethanol,AAIsrh,CCCC[NH3+],O=[N+]([O-])[O-],2,,,,3093,False,CCCC[NH3+].O=[N+]([O-])[O-],No changes
AZGuM,293.15,101.0,1104.7,Xu et al. (2013a),Liquid,1.0,n-butylammonium nitrate,,,CCCC[NH3+].O=[N+]([O-])[O-],n-butylammonium nitrate,AAaJgU,CCO,ethanol,AAIsrh,CCCC[NH3+],O=[N+]([O-])[O-],2,,,,3094,False,CCCC[NH3+].O=[N+]([O-])[O-],No changes
AZGuM,298.15,101.0,785.39,Xu et al. (2013a),Liquid,0.0,n-butylammonium nitrate,,,CCCC[NH3+].O=[N+]([O-])[O-],n-butylammonium nitrate,AAaJgU,CCO,ethanol,AAIsrh,CCCC[NH3+],O=[N+]([O-])[O-],2,,,,3095,False,CCCC[NH3+].O=[N+]([O-])[O-],No changes
AZGuM,298.15,101.0,854.53,Xu et al. (2013a),Liquid,0.0995,n-butylammonium nitrate,,,CCCC[NH3+].O=[N+]([O-])[O-],n-butylammonium nitrate,AAaJgU,CCO,ethanol,AAIsrh,CCCC[NH3+],O=[N+]([O-])[O-],2,,,,3096,False,CCCC[NH3+].O=[N+]([O-])[O-],No changes
AZGuM,298.15,101.0,906.36,Xu et al. (2013a),Liquid,0.1997,n-butylammonium nitrate,,,CCCC[NH3+].O=[N+]([O-])[O-],n-butylammonium nitrate,AAaJgU,CCO,ethanol,AAIsrh,CCCC[NH3+],O=[N+]([O-])[O-],2,,,,3097,False,CCCC[NH3+].O=[N+]([O-])[O-],No changes
AZGuM,298.15,101.0,947.99,Xu et al. (2013a),Liquid,0.2999,n-butylammonium nitrate,,,CCCC[NH3+].O=[N+]([O-])[O-],n-butylammonium nitrate,AAaJgU,CCO,ethanol,AAIsrh,CCCC[NH3+],O=[N+]([O-])[O-],2,,,,3098,False,CCCC[NH3+].O=[N+]([O-])[O-],No changes
AZGuM,298.15,101.0,981.61,Xu et al. (2013a),Liquid,0.3998,n-butylammonium nitrate,,,CCCC[NH3+].O=[N+]([O-])[O-],n-butylammonium nitrate,AAaJgU,CCO,ethanol,AAIsrh,CCCC[NH3+],O=[N+]([O-])[O-],2,,,,3099,False,CCCC[NH3+].O=[N+]([O-])[O-],No changes
AZGuM,298.15,101.0,1009.6,Xu et al. (2013a),Liquid,0.5005,n-butylammonium nitrate,,,CCCC[NH3+].O=[N+]([O-])[O-],n-butylammonium nitrate,AAaJgU,CCO,ethanol,AAIsrh,CCCC[NH3+],O=[N+]([O-])[O-],2,,,,3100,False,CCCC[NH3+].O=[N+]([O-])[O-],No changes
AZGuM,298.15,101.0,1044.4,Xu et al. (2013a),Liquid,0.6501,n-butylammonium nitrate,,,CCCC[NH3+].O=[N+]([O-])[O-],n-butylammonium nitrate,AAaJgU,CCO,ethanol,AAIsrh,CCCC[NH3+],O=[N+]([O-])[O-],2,,,,3101,False,CCCC[NH3+].O=[N+]([O-])[O-],No changes