setid,Temperature (K),Pressure (kPa),Density (kg/m3),reference,phases,Mole fraction,Mole fraction of compound name,Weight fraction,Weight fraction of compound name,IL_SMILES,IL_name,IL_ID,Solvent_SMILES,Solvent_name,Solvent_ID,IL_cation_SMILES,IL_anion_SMILES,IL_component_number,Mole fraction of solvent,IL_MW,Solvent_MW,Record_ID,Contains_Metal,Standardized_IL_SMILES,Changes
LvZby,318.15,101.0,1225.05,Salinas et al. (2015),Liquid,0.39,1-hexyl-3-methylimidazolium bis[(trifluoromethyl)sulfonyl]imide,,,CCCCCC[n+]1ccn(C)c1.O=S(=O)([N-]S(=O)(=O)C(F)(F)F)C(F)(F)F,1-hexyl-3-methylimidazolium bis[(trifluoromethyl)sulfonyl]imide,ABiCtA,CCO,ethanol,AAIsrh,CCCCCC[n+]1ccn(C)c1,O=S(=O)([N-]S(=O)(=O)C(F)(F)F)C(F)(F)F,2,,,,2670,False,CCCCCC[n+]1ccn(C)c1.O=S(=O)([N-]S(=O)(=O)C(F)(F)F)C(F)(F)F,No changes
LvZby,318.15,101.0,1254.61,Salinas et al. (2015),Liquid,0.47,1-hexyl-3-methylimidazolium bis[(trifluoromethyl)sulfonyl]imide,,,CCCCCC[n+]1ccn(C)c1.O=S(=O)([N-]S(=O)(=O)C(F)(F)F)C(F)(F)F,1-hexyl-3-methylimidazolium bis[(trifluoromethyl)sulfonyl]imide,ABiCtA,CCO,ethanol,AAIsrh,CCCCCC[n+]1ccn(C)c1,O=S(=O)([N-]S(=O)(=O)C(F)(F)F)C(F)(F)F,2,,,,2671,False,CCCCCC[n+]1ccn(C)c1.O=S(=O)([N-]S(=O)(=O)C(F)(F)F)C(F)(F)F,No changes
LvZby,318.15,101.0,1289.55,Salinas et al. (2015),Liquid,0.596,1-hexyl-3-methylimidazolium bis[(trifluoromethyl)sulfonyl]imide,,,CCCCCC[n+]1ccn(C)c1.O=S(=O)([N-]S(=O)(=O)C(F)(F)F)C(F)(F)F,1-hexyl-3-methylimidazolium bis[(trifluoromethyl)sulfonyl]imide,ABiCtA,CCO,ethanol,AAIsrh,CCCCCC[n+]1ccn(C)c1,O=S(=O)([N-]S(=O)(=O)C(F)(F)F)C(F)(F)F,2,,,,2672,False,CCCCCC[n+]1ccn(C)c1.O=S(=O)([N-]S(=O)(=O)C(F)(F)F)C(F)(F)F,No changes
LvZby,318.15,101.0,1309.88,Salinas et al. (2015),Liquid,0.694,1-hexyl-3-methylimidazolium bis[(trifluoromethyl)sulfonyl]imide,,,CCCCCC[n+]1ccn(C)c1.O=S(=O)([N-]S(=O)(=O)C(F)(F)F)C(F)(F)F,1-hexyl-3-methylimidazolium bis[(trifluoromethyl)sulfonyl]imide,ABiCtA,CCO,ethanol,AAIsrh,CCCCCC[n+]1ccn(C)c1,O=S(=O)([N-]S(=O)(=O)C(F)(F)F)C(F)(F)F,2,,,,2673,False,CCCCCC[n+]1ccn(C)c1.O=S(=O)([N-]S(=O)(=O)C(F)(F)F)C(F)(F)F,No changes
LvZby,318.15,101.0,1327.59,Salinas et al. (2015),Liquid,0.799,1-hexyl-3-methylimidazolium bis[(trifluoromethyl)sulfonyl]imide,,,CCCCCC[n+]1ccn(C)c1.O=S(=O)([N-]S(=O)(=O)C(F)(F)F)C(F)(F)F,1-hexyl-3-methylimidazolium bis[(trifluoromethyl)sulfonyl]imide,ABiCtA,CCO,ethanol,AAIsrh,CCCCCC[n+]1ccn(C)c1,O=S(=O)([N-]S(=O)(=O)C(F)(F)F)C(F)(F)F,2,,,,2674,False,CCCCCC[n+]1ccn(C)c1.O=S(=O)([N-]S(=O)(=O)C(F)(F)F)C(F)(F)F,No changes
LvZby,318.15,101.0,1342.08,Salinas et al. (2015),Liquid,0.903,1-hexyl-3-methylimidazolium bis[(trifluoromethyl)sulfonyl]imide,,,CCCCCC[n+]1ccn(C)c1.O=S(=O)([N-]S(=O)(=O)C(F)(F)F)C(F)(F)F,1-hexyl-3-methylimidazolium bis[(trifluoromethyl)sulfonyl]imide,ABiCtA,CCO,ethanol,AAIsrh,CCCCCC[n+]1ccn(C)c1,O=S(=O)([N-]S(=O)(=O)C(F)(F)F)C(F)(F)F,2,,,,2675,False,CCCCCC[n+]1ccn(C)c1.O=S(=O)([N-]S(=O)(=O)C(F)(F)F)C(F)(F)F,No changes
LvZby,318.15,101.0,1353.31,Salinas et al. (2015),Liquid,1.0,1-hexyl-3-methylimidazolium bis[(trifluoromethyl)sulfonyl]imide,,,CCCCCC[n+]1ccn(C)c1.O=S(=O)([N-]S(=O)(=O)C(F)(F)F)C(F)(F)F,1-hexyl-3-methylimidazolium bis[(trifluoromethyl)sulfonyl]imide,ABiCtA,CCO,ethanol,AAIsrh,CCCCCC[n+]1ccn(C)c1,O=S(=O)([N-]S(=O)(=O)C(F)(F)F)C(F)(F)F,2,,,,2676,False,CCCCCC[n+]1ccn(C)c1.O=S(=O)([N-]S(=O)(=O)C(F)(F)F)C(F)(F)F,No changes
LvZby,338.15,101.0,749.54,Salinas et al. (2015),Liquid,0.0,1-hexyl-3-methylimidazolium bis[(trifluoromethyl)sulfonyl]imide,,,CCCCCC[n+]1ccn(C)c1.O=S(=O)([N-]S(=O)(=O)C(F)(F)F)C(F)(F)F,1-hexyl-3-methylimidazolium bis[(trifluoromethyl)sulfonyl]imide,ABiCtA,CCO,ethanol,AAIsrh,CCCCCC[n+]1ccn(C)c1,O=S(=O)([N-]S(=O)(=O)C(F)(F)F)C(F)(F)F,2,,,,2677,False,CCCCCC[n+]1ccn(C)c1.O=S(=O)([N-]S(=O)(=O)C(F)(F)F)C(F)(F)F,No changes
LvZby,338.15,101.0,878.04,Salinas et al. (2015),Liquid,0.047,1-hexyl-3-methylimidazolium bis[(trifluoromethyl)sulfonyl]imide,,,CCCCCC[n+]1ccn(C)c1.O=S(=O)([N-]S(=O)(=O)C(F)(F)F)C(F)(F)F,1-hexyl-3-methylimidazolium bis[(trifluoromethyl)sulfonyl]imide,ABiCtA,CCO,ethanol,AAIsrh,CCCCCC[n+]1ccn(C)c1,O=S(=O)([N-]S(=O)(=O)C(F)(F)F)C(F)(F)F,2,,,,2678,False,CCCCCC[n+]1ccn(C)c1.O=S(=O)([N-]S(=O)(=O)C(F)(F)F)C(F)(F)F,No changes
LvZby,338.15,101.0,970.28,Salinas et al. (2015),Liquid,0.097,1-hexyl-3-methylimidazolium bis[(trifluoromethyl)sulfonyl]imide,,,CCCCCC[n+]1ccn(C)c1.O=S(=O)([N-]S(=O)(=O)C(F)(F)F)C(F)(F)F,1-hexyl-3-methylimidazolium bis[(trifluoromethyl)sulfonyl]imide,ABiCtA,CCO,ethanol,AAIsrh,CCCCCC[n+]1ccn(C)c1,O=S(=O)([N-]S(=O)(=O)C(F)(F)F)C(F)(F)F,2,,,,2679,False,CCCCCC[n+]1ccn(C)c1.O=S(=O)([N-]S(=O)(=O)C(F)(F)F)C(F)(F)F,No changes
LvZby,338.15,101.0,1088.96,Salinas et al. (2015),Liquid,0.198,1-hexyl-3-methylimidazolium bis[(trifluoromethyl)sulfonyl]imide,,,CCCCCC[n+]1ccn(C)c1.O=S(=O)([N-]S(=O)(=O)C(F)(F)F)C(F)(F)F,1-hexyl-3-methylimidazolium bis[(trifluoromethyl)sulfonyl]imide,ABiCtA,CCO,ethanol,AAIsrh,CCCCCC[n+]1ccn(C)c1,O=S(=O)([N-]S(=O)(=O)C(F)(F)F)C(F)(F)F,2,,,,2680,False,CCCCCC[n+]1ccn(C)c1.O=S(=O)([N-]S(=O)(=O)C(F)(F)F)C(F)(F)F,No changes
LvZby,338.15,101.0,1157.75,Salinas et al. (2015),Liquid,0.292,1-hexyl-3-methylimidazolium bis[(trifluoromethyl)sulfonyl]imide,,,CCCCCC[n+]1ccn(C)c1.O=S(=O)([N-]S(=O)(=O)C(F)(F)F)C(F)(F)F,1-hexyl-3-methylimidazolium bis[(trifluoromethyl)sulfonyl]imide,ABiCtA,CCO,ethanol,AAIsrh,CCCCCC[n+]1ccn(C)c1,O=S(=O)([N-]S(=O)(=O)C(F)(F)F)C(F)(F)F,2,,,,2681,False,CCCCCC[n+]1ccn(C)c1.O=S(=O)([N-]S(=O)(=O)C(F)(F)F)C(F)(F)F,No changes
LvZby,338.15,101.0,1206.1,Salinas et al. (2015),Liquid,0.39,1-hexyl-3-methylimidazolium bis[(trifluoromethyl)sulfonyl]imide,,,CCCCCC[n+]1ccn(C)c1.O=S(=O)([N-]S(=O)(=O)C(F)(F)F)C(F)(F)F,1-hexyl-3-methylimidazolium bis[(trifluoromethyl)sulfonyl]imide,ABiCtA,CCO,ethanol,AAIsrh,CCCCCC[n+]1ccn(C)c1,O=S(=O)([N-]S(=O)(=O)C(F)(F)F)C(F)(F)F,2,,,,2682,False,CCCCCC[n+]1ccn(C)c1.O=S(=O)([N-]S(=O)(=O)C(F)(F)F)C(F)(F)F,No changes
LvZby,338.15,101.0,1235.83,Salinas et al. (2015),Liquid,0.47,1-hexyl-3-methylimidazolium bis[(trifluoromethyl)sulfonyl]imide,,,CCCCCC[n+]1ccn(C)c1.O=S(=O)([N-]S(=O)(=O)C(F)(F)F)C(F)(F)F,1-hexyl-3-methylimidazolium bis[(trifluoromethyl)sulfonyl]imide,ABiCtA,CCO,ethanol,AAIsrh,CCCCCC[n+]1ccn(C)c1,O=S(=O)([N-]S(=O)(=O)C(F)(F)F)C(F)(F)F,2,,,,2683,False,CCCCCC[n+]1ccn(C)c1.O=S(=O)([N-]S(=O)(=O)C(F)(F)F)C(F)(F)F,No changes
LvZby,338.15,101.0,1271.01,Salinas et al. (2015),Liquid,0.596,1-hexyl-3-methylimidazolium bis[(trifluoromethyl)sulfonyl]imide,,,CCCCCC[n+]1ccn(C)c1.O=S(=O)([N-]S(=O)(=O)C(F)(F)F)C(F)(F)F,1-hexyl-3-methylimidazolium bis[(trifluoromethyl)sulfonyl]imide,ABiCtA,CCO,ethanol,AAIsrh,CCCCCC[n+]1ccn(C)c1,O=S(=O)([N-]S(=O)(=O)C(F)(F)F)C(F)(F)F,2,,,,2684,False,CCCCCC[n+]1ccn(C)c1.O=S(=O)([N-]S(=O)(=O)C(F)(F)F)C(F)(F)F,No changes
LvZby,338.15,101.0,1291.5,Salinas et al. (2015),Liquid,0.694,1-hexyl-3-methylimidazolium bis[(trifluoromethyl)sulfonyl]imide,,,CCCCCC[n+]1ccn(C)c1.O=S(=O)([N-]S(=O)(=O)C(F)(F)F)C(F)(F)F,1-hexyl-3-methylimidazolium bis[(trifluoromethyl)sulfonyl]imide,ABiCtA,CCO,ethanol,AAIsrh,CCCCCC[n+]1ccn(C)c1,O=S(=O)([N-]S(=O)(=O)C(F)(F)F)C(F)(F)F,2,,,,2685,False,CCCCCC[n+]1ccn(C)c1.O=S(=O)([N-]S(=O)(=O)C(F)(F)F)C(F)(F)F,No changes
LvZby,338.15,101.0,1309.35,Salinas et al. (2015),Liquid,0.799,1-hexyl-3-methylimidazolium bis[(trifluoromethyl)sulfonyl]imide,,,CCCCCC[n+]1ccn(C)c1.O=S(=O)([N-]S(=O)(=O)C(F)(F)F)C(F)(F)F,1-hexyl-3-methylimidazolium bis[(trifluoromethyl)sulfonyl]imide,ABiCtA,CCO,ethanol,AAIsrh,CCCCCC[n+]1ccn(C)c1,O=S(=O)([N-]S(=O)(=O)C(F)(F)F)C(F)(F)F,2,,,,2686,False,CCCCCC[n+]1ccn(C)c1.O=S(=O)([N-]S(=O)(=O)C(F)(F)F)C(F)(F)F,No changes
LvZby,338.15,101.0,1323.94,Salinas et al. (2015),Liquid,0.903,1-hexyl-3-methylimidazolium bis[(trifluoromethyl)sulfonyl]imide,,,CCCCCC[n+]1ccn(C)c1.O=S(=O)([N-]S(=O)(=O)C(F)(F)F)C(F)(F)F,1-hexyl-3-methylimidazolium bis[(trifluoromethyl)sulfonyl]imide,ABiCtA,CCO,ethanol,AAIsrh,CCCCCC[n+]1ccn(C)c1,O=S(=O)([N-]S(=O)(=O)C(F)(F)F)C(F)(F)F,2,,,,2687,False,CCCCCC[n+]1ccn(C)c1.O=S(=O)([N-]S(=O)(=O)C(F)(F)F)C(F)(F)F,No changes
LvZby,338.15,101.0,1335.25,Salinas et al. (2015),Liquid,1.0,1-hexyl-3-methylimidazolium bis[(trifluoromethyl)sulfonyl]imide,,,CCCCCC[n+]1ccn(C)c1.O=S(=O)([N-]S(=O)(=O)C(F)(F)F)C(F)(F)F,1-hexyl-3-methylimidazolium bis[(trifluoromethyl)sulfonyl]imide,ABiCtA,CCO,ethanol,AAIsrh,CCCCCC[n+]1ccn(C)c1,O=S(=O)([N-]S(=O)(=O)C(F)(F)F)C(F)(F)F,2,,,,2688,False,CCCCCC[n+]1ccn(C)c1.O=S(=O)([N-]S(=O)(=O)C(F)(F)F)C(F)(F)F,No changes
RxgtN,313.15,101.0,1219.8,Corderi et al. (2013),Liquid,0.00117304960483,,0.008,ethanol,CCCCCC[n+]1ccn(C)c1.O=S(=O)([O-])C(F)(F)F,1-hexyl-3-methylimidazolium trifluoromethanesulfonate,ABIrWy,CCO,ethanol,AAIsrh,CCCCCC[n+]1ccn(C)c1,O=S(=O)([O-])C(F)(F)F,2,,316.34499999999997,46.069,2689,False,CCCCCC[n+]1ccn(C)c1.O=S(=O)([O-])C(F)(F)F,No changes
RxgtN,313.15,101.0,1214.6,Corderi et al. (2013),Liquid,0.0022127929072275,,0.015,ethanol,CCCCCC[n+]1ccn(C)c1.O=S(=O)([O-])C(F)(F)F,1-hexyl-3-methylimidazolium trifluoromethanesulfonate,ABIrWy,CCO,ethanol,AAIsrh,CCCCCC[n+]1ccn(C)c1,O=S(=O)([O-])C(F)(F)F,2,,316.34499999999997,46.069,2690,False,CCCCCC[n+]1ccn(C)c1.O=S(=O)([O-])C(F)(F)F,No changes
RxgtN,313.15,101.0,1203.9,Corderi et al. (2013),Liquid,0.0046373201620628,,0.031,ethanol,CCCCCC[n+]1ccn(C)c1.O=S(=O)([O-])C(F)(F)F,1-hexyl-3-methylimidazolium trifluoromethanesulfonate,ABIrWy,CCO,ethanol,AAIsrh,CCCCCC[n+]1ccn(C)c1,O=S(=O)([O-])C(F)(F)F,2,,316.34499999999997,46.069,2691,False,CCCCCC[n+]1ccn(C)c1.O=S(=O)([O-])C(F)(F)F,No changes
RxgtN,313.15,101.0,1187.4,Corderi et al. (2013),Liquid,0.0085650141285031,,0.056,ethanol,CCCCCC[n+]1ccn(C)c1.O=S(=O)([O-])C(F)(F)F,1-hexyl-3-methylimidazolium trifluoromethanesulfonate,ABIrWy,CCO,ethanol,AAIsrh,CCCCCC[n+]1ccn(C)c1,O=S(=O)([O-])C(F)(F)F,2,,316.34499999999997,46.069,2692,False,CCCCCC[n+]1ccn(C)c1.O=S(=O)([O-])C(F)(F)F,No changes
RxgtN,313.15,101.0,1170.7,Corderi et al. (2013),Liquid,0.0128412114760052,,0.082,ethanol,CCCCCC[n+]1ccn(C)c1.O=S(=O)([O-])C(F)(F)F,1-hexyl-3-methylimidazolium trifluoromethanesulfonate,ABIrWy,CCO,ethanol,AAIsrh,CCCCCC[n+]1ccn(C)c1,O=S(=O)([O-])C(F)(F)F,2,,316.34499999999997,46.069,2693,False,CCCCCC[n+]1ccn(C)c1.O=S(=O)([O-])C(F)(F)F,No changes
RxgtN,313.15,101.0,1144.9,Corderi et al. (2013),Liquid,0.0200157751444879,,0.123,ethanol,CCCCCC[n+]1ccn(C)c1.O=S(=O)([O-])C(F)(F)F,1-hexyl-3-methylimidazolium trifluoromethanesulfonate,ABIrWy,CCO,ethanol,AAIsrh,CCCCCC[n+]1ccn(C)c1,O=S(=O)([O-])C(F)(F)F,2,,316.34499999999997,46.069,2694,False,CCCCCC[n+]1ccn(C)c1.O=S(=O)([O-])C(F)(F)F,No changes
RxgtN,313.15,101.0,1111.8,Corderi et al. (2013),Liquid,0.0307739169620864,,0.179,ethanol,CCCCCC[n+]1ccn(C)c1.O=S(=O)([O-])C(F)(F)F,1-hexyl-3-methylimidazolium trifluoromethanesulfonate,ABIrWy,CCO,ethanol,AAIsrh,CCCCCC[n+]1ccn(C)c1,O=S(=O)([O-])C(F)(F)F,2,,316.34499999999997,46.069,2695,False,CCCCCC[n+]1ccn(C)c1.O=S(=O)([O-])C(F)(F)F,No changes
RxgtN,313.15,101.0,1071.5,Corderi et al. (2013),Liquid,0.0467676477857425,,0.252,ethanol,CCCCCC[n+]1ccn(C)c1.O=S(=O)([O-])C(F)(F)F,1-hexyl-3-methylimidazolium trifluoromethanesulfonate,ABIrWy,CCO,ethanol,AAIsrh,CCCCCC[n+]1ccn(C)c1,O=S(=O)([O-])C(F)(F)F,2,,316.34499999999997,46.069,2696,False,CCCCCC[n+]1ccn(C)c1.O=S(=O)([O-])C(F)(F)F,No changes
RxgtN,313.15,101.0,1013.6,Corderi et al. (2013),Liquid,0.0775501105710582,,0.366,ethanol,CCCCCC[n+]1ccn(C)c1.O=S(=O)([O-])C(F)(F)F,1-hexyl-3-methylimidazolium trifluoromethanesulfonate,ABIrWy,CCO,ethanol,AAIsrh,CCCCCC[n+]1ccn(C)c1,O=S(=O)([O-])C(F)(F)F,2,,316.34499999999997,46.069,2697,False,CCCCCC[n+]1ccn(C)c1.O=S(=O)([O-])C(F)(F)F,No changes
RxgtN,313.15,101.0,931.5,Corderi et al. (2013),Liquid,0.1516161490525634,,0.551,ethanol,CCCCCC[n+]1ccn(C)c1.O=S(=O)([O-])C(F)(F)F,1-hexyl-3-methylimidazolium trifluoromethanesulfonate,ABIrWy,CCO,ethanol,AAIsrh,CCCCCC[n+]1ccn(C)c1,O=S(=O)([O-])C(F)(F)F,2,,316.34499999999997,46.069,2698,False,CCCCCC[n+]1ccn(C)c1.O=S(=O)([O-])C(F)(F)F,No changes
RxgtN,313.15,101.0,865.9,Corderi et al. (2013),Liquid,0.2724492280174803,,0.72,ethanol,CCCCCC[n+]1ccn(C)c1.O=S(=O)([O-])C(F)(F)F,1-hexyl-3-methylimidazolium trifluoromethanesulfonate,ABIrWy,CCO,ethanol,AAIsrh,CCCCCC[n+]1ccn(C)c1,O=S(=O)([O-])C(F)(F)F,2,,316.34499999999997,46.069,2699,False,CCCCCC[n+]1ccn(C)c1.O=S(=O)([O-])C(F)(F)F,No changes
JhtZY,293.15,100.0,789.5,Santos et al. (2017),Liquid,0.0,choline bis(trifluoromethylsulfonyl)imide,,,C[N+](C)(C)CCO.O=S(=O)([N-]S(=O)(=O)C(F)(F)F)C(F)(F)F,choline bis(trifluoromethylsulfonyl)imide,ABVvav,CCO,ethanol,AAIsrh,C[N+](C)(C)CCO,O=S(=O)([N-]S(=O)(=O)C(F)(F)F)C(F)(F)F,2,,,,2700,False,C[N+](C)(C)CCO.O=S(=O)([N-]S(=O)(=O)C(F)(F)F)C(F)(F)F,No changes
JhtZY,298.15,100.0,785.2,Santos et al. (2017),Liquid,0.0,choline bis(trifluoromethylsulfonyl)imide,,,C[N+](C)(C)CCO.O=S(=O)([N-]S(=O)(=O)C(F)(F)F)C(F)(F)F,choline bis(trifluoromethylsulfonyl)imide,ABVvav,CCO,ethanol,AAIsrh,C[N+](C)(C)CCO,O=S(=O)([N-]S(=O)(=O)C(F)(F)F)C(F)(F)F,2,,,,2701,False,C[N+](C)(C)CCO.O=S(=O)([N-]S(=O)(=O)C(F)(F)F)C(F)(F)F,No changes
JhtZY,303.15,100.0,780.8,Santos et al. (2017),Liquid,0.0,choline bis(trifluoromethylsulfonyl)imide,,,C[N+](C)(C)CCO.O=S(=O)([N-]S(=O)(=O)C(F)(F)F)C(F)(F)F,choline bis(trifluoromethylsulfonyl)imide,ABVvav,CCO,ethanol,AAIsrh,C[N+](C)(C)CCO,O=S(=O)([N-]S(=O)(=O)C(F)(F)F)C(F)(F)F,2,,,,2702,False,C[N+](C)(C)CCO.O=S(=O)([N-]S(=O)(=O)C(F)(F)F)C(F)(F)F,No changes
JhtZY,308.15,100.0,776.4,Santos et al. (2017),Liquid,0.0,choline bis(trifluoromethylsulfonyl)imide,,,C[N+](C)(C)CCO.O=S(=O)([N-]S(=O)(=O)C(F)(F)F)C(F)(F)F,choline bis(trifluoromethylsulfonyl)imide,ABVvav,CCO,ethanol,AAIsrh,C[N+](C)(C)CCO,O=S(=O)([N-]S(=O)(=O)C(F)(F)F)C(F)(F)F,2,,,,2703,False,C[N+](C)(C)CCO.O=S(=O)([N-]S(=O)(=O)C(F)(F)F)C(F)(F)F,No changes
JhtZY,293.15,100.0,907.2,Santos et al. (2017),Liquid,0.0399,choline bis(trifluoromethylsulfonyl)imide,,,C[N+](C)(C)CCO.O=S(=O)([N-]S(=O)(=O)C(F)(F)F)C(F)(F)F,choline bis(trifluoromethylsulfonyl)imide,ABVvav,CCO,ethanol,AAIsrh,C[N+](C)(C)CCO,O=S(=O)([N-]S(=O)(=O)C(F)(F)F)C(F)(F)F,2,,,,2704,False,C[N+](C)(C)CCO.O=S(=O)([N-]S(=O)(=O)C(F)(F)F)C(F)(F)F,No changes
JhtZY,298.15,100.0,900.8,Santos et al. (2017),Liquid,0.0399,choline bis(trifluoromethylsulfonyl)imide,,,C[N+](C)(C)CCO.O=S(=O)([N-]S(=O)(=O)C(F)(F)F)C(F)(F)F,choline bis(trifluoromethylsulfonyl)imide,ABVvav,CCO,ethanol,AAIsrh,C[N+](C)(C)CCO,O=S(=O)([N-]S(=O)(=O)C(F)(F)F)C(F)(F)F,2,,,,2705,False,C[N+](C)(C)CCO.O=S(=O)([N-]S(=O)(=O)C(F)(F)F)C(F)(F)F,No changes
JhtZY,303.15,100.0,896.3,Santos et al. (2017),Liquid,0.0399,choline bis(trifluoromethylsulfonyl)imide,,,C[N+](C)(C)CCO.O=S(=O)([N-]S(=O)(=O)C(F)(F)F)C(F)(F)F,choline bis(trifluoromethylsulfonyl)imide,ABVvav,CCO,ethanol,AAIsrh,C[N+](C)(C)CCO,O=S(=O)([N-]S(=O)(=O)C(F)(F)F)C(F)(F)F,2,,,,2706,False,C[N+](C)(C)CCO.O=S(=O)([N-]S(=O)(=O)C(F)(F)F)C(F)(F)F,No changes
JhtZY,308.15,100.0,891.8,Santos et al. (2017),Liquid,0.0399,choline bis(trifluoromethylsulfonyl)imide,,,C[N+](C)(C)CCO.O=S(=O)([N-]S(=O)(=O)C(F)(F)F)C(F)(F)F,choline bis(trifluoromethylsulfonyl)imide,ABVvav,CCO,ethanol,AAIsrh,C[N+](C)(C)CCO,O=S(=O)([N-]S(=O)(=O)C(F)(F)F)C(F)(F)F,2,,,,2707,False,C[N+](C)(C)CCO.O=S(=O)([N-]S(=O)(=O)C(F)(F)F)C(F)(F)F,No changes
JhtZY,293.15,100.0,1037.4,Santos et al. (2017),Liquid,0.0998,choline bis(trifluoromethylsulfonyl)imide,,,C[N+](C)(C)CCO.O=S(=O)([N-]S(=O)(=O)C(F)(F)F)C(F)(F)F,choline bis(trifluoromethylsulfonyl)imide,ABVvav,CCO,ethanol,AAIsrh,C[N+](C)(C)CCO,O=S(=O)([N-]S(=O)(=O)C(F)(F)F)C(F)(F)F,2,,,,2708,False,C[N+](C)(C)CCO.O=S(=O)([N-]S(=O)(=O)C(F)(F)F)C(F)(F)F,No changes
JhtZY,298.15,100.0,1029.8,Santos et al. (2017),Liquid,0.0998,choline bis(trifluoromethylsulfonyl)imide,,,C[N+](C)(C)CCO.O=S(=O)([N-]S(=O)(=O)C(F)(F)F)C(F)(F)F,choline bis(trifluoromethylsulfonyl)imide,ABVvav,CCO,ethanol,AAIsrh,C[N+](C)(C)CCO,O=S(=O)([N-]S(=O)(=O)C(F)(F)F)C(F)(F)F,2,,,,2709,False,C[N+](C)(C)CCO.O=S(=O)([N-]S(=O)(=O)C(F)(F)F)C(F)(F)F,No changes
JhtZY,303.15,100.0,1026.0,Santos et al. (2017),Liquid,0.0998,choline bis(trifluoromethylsulfonyl)imide,,,C[N+](C)(C)CCO.O=S(=O)([N-]S(=O)(=O)C(F)(F)F)C(F)(F)F,choline bis(trifluoromethylsulfonyl)imide,ABVvav,CCO,ethanol,AAIsrh,C[N+](C)(C)CCO,O=S(=O)([N-]S(=O)(=O)C(F)(F)F)C(F)(F)F,2,,,,2710,False,C[N+](C)(C)CCO.O=S(=O)([N-]S(=O)(=O)C(F)(F)F)C(F)(F)F,No changes
JhtZY,308.15,100.0,1020.1,Santos et al. (2017),Liquid,0.0998,choline bis(trifluoromethylsulfonyl)imide,,,C[N+](C)(C)CCO.O=S(=O)([N-]S(=O)(=O)C(F)(F)F)C(F)(F)F,choline bis(trifluoromethylsulfonyl)imide,ABVvav,CCO,ethanol,AAIsrh,C[N+](C)(C)CCO,O=S(=O)([N-]S(=O)(=O)C(F)(F)F)C(F)(F)F,2,,,,2711,False,C[N+](C)(C)CCO.O=S(=O)([N-]S(=O)(=O)C(F)(F)F)C(F)(F)F,No changes
JhtZY,293.15,100.0,1179.2,Santos et al. (2017),Liquid,0.199,choline bis(trifluoromethylsulfonyl)imide,,,C[N+](C)(C)CCO.O=S(=O)([N-]S(=O)(=O)C(F)(F)F)C(F)(F)F,choline bis(trifluoromethylsulfonyl)imide,ABVvav,CCO,ethanol,AAIsrh,C[N+](C)(C)CCO,O=S(=O)([N-]S(=O)(=O)C(F)(F)F)C(F)(F)F,2,,,,2712,False,C[N+](C)(C)CCO.O=S(=O)([N-]S(=O)(=O)C(F)(F)F)C(F)(F)F,No changes
JhtZY,298.15,100.0,1174.3,Santos et al. (2017),Liquid,0.199,choline bis(trifluoromethylsulfonyl)imide,,,C[N+](C)(C)CCO.O=S(=O)([N-]S(=O)(=O)C(F)(F)F)C(F)(F)F,choline bis(trifluoromethylsulfonyl)imide,ABVvav,CCO,ethanol,AAIsrh,C[N+](C)(C)CCO,O=S(=O)([N-]S(=O)(=O)C(F)(F)F)C(F)(F)F,2,,,,2713,False,C[N+](C)(C)CCO.O=S(=O)([N-]S(=O)(=O)C(F)(F)F)C(F)(F)F,No changes
JhtZY,303.15,100.0,1169.1,Santos et al. (2017),Liquid,0.199,choline bis(trifluoromethylsulfonyl)imide,,,C[N+](C)(C)CCO.O=S(=O)([N-]S(=O)(=O)C(F)(F)F)C(F)(F)F,choline bis(trifluoromethylsulfonyl)imide,ABVvav,CCO,ethanol,AAIsrh,C[N+](C)(C)CCO,O=S(=O)([N-]S(=O)(=O)C(F)(F)F)C(F)(F)F,2,,,,2714,False,C[N+](C)(C)CCO.O=S(=O)([N-]S(=O)(=O)C(F)(F)F)C(F)(F)F,No changes
JhtZY,308.15,100.0,1164.0,Santos et al. (2017),Liquid,0.199,choline bis(trifluoromethylsulfonyl)imide,,,C[N+](C)(C)CCO.O=S(=O)([N-]S(=O)(=O)C(F)(F)F)C(F)(F)F,choline bis(trifluoromethylsulfonyl)imide,ABVvav,CCO,ethanol,AAIsrh,C[N+](C)(C)CCO,O=S(=O)([N-]S(=O)(=O)C(F)(F)F)C(F)(F)F,2,,,,2715,False,C[N+](C)(C)CCO.O=S(=O)([N-]S(=O)(=O)C(F)(F)F)C(F)(F)F,No changes
JhtZY,293.15,100.0,1274.0,Santos et al. (2017),Liquid,0.2949,choline bis(trifluoromethylsulfonyl)imide,,,C[N+](C)(C)CCO.O=S(=O)([N-]S(=O)(=O)C(F)(F)F)C(F)(F)F,choline bis(trifluoromethylsulfonyl)imide,ABVvav,CCO,ethanol,AAIsrh,C[N+](C)(C)CCO,O=S(=O)([N-]S(=O)(=O)C(F)(F)F)C(F)(F)F,2,,,,2716,False,C[N+](C)(C)CCO.O=S(=O)([N-]S(=O)(=O)C(F)(F)F)C(F)(F)F,No changes
JhtZY,298.15,100.0,1266.4,Santos et al. (2017),Liquid,0.2949,choline bis(trifluoromethylsulfonyl)imide,,,C[N+](C)(C)CCO.O=S(=O)([N-]S(=O)(=O)C(F)(F)F)C(F)(F)F,choline bis(trifluoromethylsulfonyl)imide,ABVvav,CCO,ethanol,AAIsrh,C[N+](C)(C)CCO,O=S(=O)([N-]S(=O)(=O)C(F)(F)F)C(F)(F)F,2,,,,2717,False,C[N+](C)(C)CCO.O=S(=O)([N-]S(=O)(=O)C(F)(F)F)C(F)(F)F,No changes
JhtZY,303.15,100.0,1261.6,Santos et al. (2017),Liquid,0.2949,choline bis(trifluoromethylsulfonyl)imide,,,C[N+](C)(C)CCO.O=S(=O)([N-]S(=O)(=O)C(F)(F)F)C(F)(F)F,choline bis(trifluoromethylsulfonyl)imide,ABVvav,CCO,ethanol,AAIsrh,C[N+](C)(C)CCO,O=S(=O)([N-]S(=O)(=O)C(F)(F)F)C(F)(F)F,2,,,,2718,False,C[N+](C)(C)CCO.O=S(=O)([N-]S(=O)(=O)C(F)(F)F)C(F)(F)F,No changes
JhtZY,308.15,100.0,1256.8,Santos et al. (2017),Liquid,0.2949,choline bis(trifluoromethylsulfonyl)imide,,,C[N+](C)(C)CCO.O=S(=O)([N-]S(=O)(=O)C(F)(F)F)C(F)(F)F,choline bis(trifluoromethylsulfonyl)imide,ABVvav,CCO,ethanol,AAIsrh,C[N+](C)(C)CCO,O=S(=O)([N-]S(=O)(=O)C(F)(F)F)C(F)(F)F,2,,,,2719,False,C[N+](C)(C)CCO.O=S(=O)([N-]S(=O)(=O)C(F)(F)F)C(F)(F)F,No changes
JjJsp,298.15,100.0,1213.4,Gonzalez et al. (2008a),Liquid,1.0,ethanol,,,CCCC[n+]1ccn(C)c1.COS(=O)(=O)[O-],1-butyl-3-methylimidazolium methyl sulfate,AAwHNg,CCO,ethanol,AAIsrh,CCCC[n+]1ccn(C)c1,COS(=O)(=O)[O-],2,0.0,,,2720,False,CCCC[n+]1ccn(C)c1.COS(=O)(=O)[O-],No changes
JjJsp,298.15,100.0,1205.8,Gonzalez et al. (2008a),Liquid,0.9349,ethanol,,,CCCC[n+]1ccn(C)c1.COS(=O)(=O)[O-],1-butyl-3-methylimidazolium methyl sulfate,AAwHNg,CCO,ethanol,AAIsrh,CCCC[n+]1ccn(C)c1,COS(=O)(=O)[O-],2,0.0651,,,2721,False,CCCC[n+]1ccn(C)c1.COS(=O)(=O)[O-],No changes