setid,Temperature (K),Pressure (kPa),Density (kg/m3),reference,phases,Mole fraction,Mole fraction of compound name,Weight fraction,Weight fraction of compound name,IL_SMILES,IL_name,IL_ID,Solvent_SMILES,Solvent_name,Solvent_ID,IL_cation_SMILES,IL_anion_SMILES,IL_component_number,Mole fraction of solvent,IL_MW,Solvent_MW,Record_ID,Contains_Metal,Standardized_IL_SMILES,Changes
skngH,298.15,101.0,1015.0,Gonzalez and Gonzalez (2014),Liquid,0.0998,ethanol,,,CCC[N+]1(C)CCCC1.O=S(=O)([N-]S(=O)(=O)C(F)(F)F)C(F)(F)F,1-methyl-1-propylpyrrolidinium bis[(trifluoromethyl)sulfonyl]imide,ABabds,CCO,ethanol,AAIsrh,CCC[N+]1(C)CCCC1,O=S(=O)([N-]S(=O)(=O)C(F)(F)F)C(F)(F)F,2,0.9002,,,934,False,CCC[N+]1(C)CCCC1.O=S(=O)([N-]S(=O)(=O)C(F)(F)F)C(F)(F)F,No changes
skngH,298.15,101.0,927.02,Gonzalez and Gonzalez (2014),Liquid,0.0532,ethanol,,,CCC[N+]1(C)CCCC1.O=S(=O)([N-]S(=O)(=O)C(F)(F)F)C(F)(F)F,1-methyl-1-propylpyrrolidinium bis[(trifluoromethyl)sulfonyl]imide,ABabds,CCO,ethanol,AAIsrh,CCC[N+]1(C)CCCC1,O=S(=O)([N-]S(=O)(=O)C(F)(F)F)C(F)(F)F,2,0.9468,,,935,False,CCC[N+]1(C)CCCC1.O=S(=O)([N-]S(=O)(=O)C(F)(F)F)C(F)(F)F,No changes
skngH,298.15,101.0,785.48,Gonzalez and Gonzalez (2014),Liquid,0.0,ethanol,,,CCC[N+]1(C)CCCC1.O=S(=O)([N-]S(=O)(=O)C(F)(F)F)C(F)(F)F,1-methyl-1-propylpyrrolidinium bis[(trifluoromethyl)sulfonyl]imide,ABabds,CCO,ethanol,AAIsrh,CCC[N+]1(C)CCCC1,O=S(=O)([N-]S(=O)(=O)C(F)(F)F)C(F)(F)F,2,1.0,,,936,False,CCC[N+]1(C)CCCC1.O=S(=O)([N-]S(=O)(=O)C(F)(F)F)C(F)(F)F,No changes
skngH,303.15,101.0,1423.26,Gonzalez and Gonzalez (2014),Liquid,1.0,ethanol,,,CCC[N+]1(C)CCCC1.O=S(=O)([N-]S(=O)(=O)C(F)(F)F)C(F)(F)F,1-methyl-1-propylpyrrolidinium bis[(trifluoromethyl)sulfonyl]imide,ABabds,CCO,ethanol,AAIsrh,CCC[N+]1(C)CCCC1,O=S(=O)([N-]S(=O)(=O)C(F)(F)F)C(F)(F)F,2,0.0,,,937,False,CCC[N+]1(C)CCCC1.O=S(=O)([N-]S(=O)(=O)C(F)(F)F)C(F)(F)F,No changes
skngH,303.15,101.0,1421.16,Gonzalez and Gonzalez (2014),Liquid,0.984,ethanol,,,CCC[N+]1(C)CCCC1.O=S(=O)([N-]S(=O)(=O)C(F)(F)F)C(F)(F)F,1-methyl-1-propylpyrrolidinium bis[(trifluoromethyl)sulfonyl]imide,ABabds,CCO,ethanol,AAIsrh,CCC[N+]1(C)CCCC1,O=S(=O)([N-]S(=O)(=O)C(F)(F)F)C(F)(F)F,2,0.016,,,938,False,CCC[N+]1(C)CCCC1.O=S(=O)([N-]S(=O)(=O)C(F)(F)F)C(F)(F)F,No changes
skngH,303.15,101.0,1413.56,Gonzalez and Gonzalez (2014),Liquid,0.9297,ethanol,,,CCC[N+]1(C)CCCC1.O=S(=O)([N-]S(=O)(=O)C(F)(F)F)C(F)(F)F,1-methyl-1-propylpyrrolidinium bis[(trifluoromethyl)sulfonyl]imide,ABabds,CCO,ethanol,AAIsrh,CCC[N+]1(C)CCCC1,O=S(=O)([N-]S(=O)(=O)C(F)(F)F)C(F)(F)F,2,0.0703,,,939,False,CCC[N+]1(C)CCCC1.O=S(=O)([N-]S(=O)(=O)C(F)(F)F)C(F)(F)F,No changes
skngH,303.15,101.0,1409.36,Gonzalez and Gonzalez (2014),Liquid,0.9014,ethanol,,,CCC[N+]1(C)CCCC1.O=S(=O)([N-]S(=O)(=O)C(F)(F)F)C(F)(F)F,1-methyl-1-propylpyrrolidinium bis[(trifluoromethyl)sulfonyl]imide,ABabds,CCO,ethanol,AAIsrh,CCC[N+]1(C)CCCC1,O=S(=O)([N-]S(=O)(=O)C(F)(F)F)C(F)(F)F,2,0.0986,,,940,False,CCC[N+]1(C)CCCC1.O=S(=O)([N-]S(=O)(=O)C(F)(F)F)C(F)(F)F,No changes
skngH,303.15,101.0,1376.07,Gonzalez and Gonzalez (2014),Liquid,0.7183999999999999,ethanol,,,CCC[N+]1(C)CCCC1.O=S(=O)([N-]S(=O)(=O)C(F)(F)F)C(F)(F)F,1-methyl-1-propylpyrrolidinium bis[(trifluoromethyl)sulfonyl]imide,ABabds,CCO,ethanol,AAIsrh,CCC[N+]1(C)CCCC1,O=S(=O)([N-]S(=O)(=O)C(F)(F)F)C(F)(F)F,2,0.2816,,,941,False,CCC[N+]1(C)CCCC1.O=S(=O)([N-]S(=O)(=O)C(F)(F)F)C(F)(F)F,No changes
skngH,303.15,101.0,1344.8,Gonzalez and Gonzalez (2014),Liquid,0.5918,ethanol,,,CCC[N+]1(C)CCCC1.O=S(=O)([N-]S(=O)(=O)C(F)(F)F)C(F)(F)F,1-methyl-1-propylpyrrolidinium bis[(trifluoromethyl)sulfonyl]imide,ABabds,CCO,ethanol,AAIsrh,CCC[N+]1(C)CCCC1,O=S(=O)([N-]S(=O)(=O)C(F)(F)F)C(F)(F)F,2,0.4082,,,942,False,CCC[N+]1(C)CCCC1.O=S(=O)([N-]S(=O)(=O)C(F)(F)F)C(F)(F)F,No changes
skngH,303.15,101.0,1310.32,Gonzalez and Gonzalez (2014),Liquid,0.4857,ethanol,,,CCC[N+]1(C)CCCC1.O=S(=O)([N-]S(=O)(=O)C(F)(F)F)C(F)(F)F,1-methyl-1-propylpyrrolidinium bis[(trifluoromethyl)sulfonyl]imide,ABabds,CCO,ethanol,AAIsrh,CCC[N+]1(C)CCCC1,O=S(=O)([N-]S(=O)(=O)C(F)(F)F)C(F)(F)F,2,0.5143,,,943,False,CCC[N+]1(C)CCCC1.O=S(=O)([N-]S(=O)(=O)C(F)(F)F)C(F)(F)F,No changes
skngH,303.15,101.0,1270.84,Gonzalez and Gonzalez (2014),Liquid,0.3923,ethanol,,,CCC[N+]1(C)CCCC1.O=S(=O)([N-]S(=O)(=O)C(F)(F)F)C(F)(F)F,1-methyl-1-propylpyrrolidinium bis[(trifluoromethyl)sulfonyl]imide,ABabds,CCO,ethanol,AAIsrh,CCC[N+]1(C)CCCC1,O=S(=O)([N-]S(=O)(=O)C(F)(F)F)C(F)(F)F,2,0.6077,,,944,False,CCC[N+]1(C)CCCC1.O=S(=O)([N-]S(=O)(=O)C(F)(F)F)C(F)(F)F,No changes
skngH,303.15,101.0,1214.5,Gonzalez and Gonzalez (2014),Liquid,0.2941,ethanol,,,CCC[N+]1(C)CCCC1.O=S(=O)([N-]S(=O)(=O)C(F)(F)F)C(F)(F)F,1-methyl-1-propylpyrrolidinium bis[(trifluoromethyl)sulfonyl]imide,ABabds,CCO,ethanol,AAIsrh,CCC[N+]1(C)CCCC1,O=S(=O)([N-]S(=O)(=O)C(F)(F)F)C(F)(F)F,2,0.7059,,,945,False,CCC[N+]1(C)CCCC1.O=S(=O)([N-]S(=O)(=O)C(F)(F)F)C(F)(F)F,No changes
skngH,303.15,101.0,1134.21,Gonzalez and Gonzalez (2014),Liquid,0.1966,ethanol,,,CCC[N+]1(C)CCCC1.O=S(=O)([N-]S(=O)(=O)C(F)(F)F)C(F)(F)F,1-methyl-1-propylpyrrolidinium bis[(trifluoromethyl)sulfonyl]imide,ABabds,CCO,ethanol,AAIsrh,CCC[N+]1(C)CCCC1,O=S(=O)([N-]S(=O)(=O)C(F)(F)F)C(F)(F)F,2,0.8034,,,946,False,CCC[N+]1(C)CCCC1.O=S(=O)([N-]S(=O)(=O)C(F)(F)F)C(F)(F)F,No changes
skngH,303.15,101.0,1010.37,Gonzalez and Gonzalez (2014),Liquid,0.0998,ethanol,,,CCC[N+]1(C)CCCC1.O=S(=O)([N-]S(=O)(=O)C(F)(F)F)C(F)(F)F,1-methyl-1-propylpyrrolidinium bis[(trifluoromethyl)sulfonyl]imide,ABabds,CCO,ethanol,AAIsrh,CCC[N+]1(C)CCCC1,O=S(=O)([N-]S(=O)(=O)C(F)(F)F)C(F)(F)F,2,0.9002,,,947,False,CCC[N+]1(C)CCCC1.O=S(=O)([N-]S(=O)(=O)C(F)(F)F)C(F)(F)F,No changes
skngH,303.15,101.0,922.49,Gonzalez and Gonzalez (2014),Liquid,0.0532,ethanol,,,CCC[N+]1(C)CCCC1.O=S(=O)([N-]S(=O)(=O)C(F)(F)F)C(F)(F)F,1-methyl-1-propylpyrrolidinium bis[(trifluoromethyl)sulfonyl]imide,ABabds,CCO,ethanol,AAIsrh,CCC[N+]1(C)CCCC1,O=S(=O)([N-]S(=O)(=O)C(F)(F)F)C(F)(F)F,2,0.9468,,,948,False,CCC[N+]1(C)CCCC1.O=S(=O)([N-]S(=O)(=O)C(F)(F)F)C(F)(F)F,No changes
skngH,303.15,101.0,781.16,Gonzalez and Gonzalez (2014),Liquid,0.0,ethanol,,,CCC[N+]1(C)CCCC1.O=S(=O)([N-]S(=O)(=O)C(F)(F)F)C(F)(F)F,1-methyl-1-propylpyrrolidinium bis[(trifluoromethyl)sulfonyl]imide,ABabds,CCO,ethanol,AAIsrh,CCC[N+]1(C)CCCC1,O=S(=O)([N-]S(=O)(=O)C(F)(F)F)C(F)(F)F,2,1.0,,,949,False,CCC[N+]1(C)CCCC1.O=S(=O)([N-]S(=O)(=O)C(F)(F)F)C(F)(F)F,No changes
skngH,308.15,101.0,1418.83,Gonzalez and Gonzalez (2014),Liquid,1.0,ethanol,,,CCC[N+]1(C)CCCC1.O=S(=O)([N-]S(=O)(=O)C(F)(F)F)C(F)(F)F,1-methyl-1-propylpyrrolidinium bis[(trifluoromethyl)sulfonyl]imide,ABabds,CCO,ethanol,AAIsrh,CCC[N+]1(C)CCCC1,O=S(=O)([N-]S(=O)(=O)C(F)(F)F)C(F)(F)F,2,0.0,,,950,False,CCC[N+]1(C)CCCC1.O=S(=O)([N-]S(=O)(=O)C(F)(F)F)C(F)(F)F,No changes
skngH,308.15,101.0,1416.65,Gonzalez and Gonzalez (2014),Liquid,0.984,ethanol,,,CCC[N+]1(C)CCCC1.O=S(=O)([N-]S(=O)(=O)C(F)(F)F)C(F)(F)F,1-methyl-1-propylpyrrolidinium bis[(trifluoromethyl)sulfonyl]imide,ABabds,CCO,ethanol,AAIsrh,CCC[N+]1(C)CCCC1,O=S(=O)([N-]S(=O)(=O)C(F)(F)F)C(F)(F)F,2,0.016,,,951,False,CCC[N+]1(C)CCCC1.O=S(=O)([N-]S(=O)(=O)C(F)(F)F)C(F)(F)F,No changes
skngH,308.15,101.0,1409.05,Gonzalez and Gonzalez (2014),Liquid,0.9297,ethanol,,,CCC[N+]1(C)CCCC1.O=S(=O)([N-]S(=O)(=O)C(F)(F)F)C(F)(F)F,1-methyl-1-propylpyrrolidinium bis[(trifluoromethyl)sulfonyl]imide,ABabds,CCO,ethanol,AAIsrh,CCC[N+]1(C)CCCC1,O=S(=O)([N-]S(=O)(=O)C(F)(F)F)C(F)(F)F,2,0.0703,,,952,False,CCC[N+]1(C)CCCC1.O=S(=O)([N-]S(=O)(=O)C(F)(F)F)C(F)(F)F,No changes
skngH,308.15,101.0,1404.83,Gonzalez and Gonzalez (2014),Liquid,0.9014,ethanol,,,CCC[N+]1(C)CCCC1.O=S(=O)([N-]S(=O)(=O)C(F)(F)F)C(F)(F)F,1-methyl-1-propylpyrrolidinium bis[(trifluoromethyl)sulfonyl]imide,ABabds,CCO,ethanol,AAIsrh,CCC[N+]1(C)CCCC1,O=S(=O)([N-]S(=O)(=O)C(F)(F)F)C(F)(F)F,2,0.0986,,,953,False,CCC[N+]1(C)CCCC1.O=S(=O)([N-]S(=O)(=O)C(F)(F)F)C(F)(F)F,No changes
skngH,308.15,101.0,1371.48,Gonzalez and Gonzalez (2014),Liquid,0.7183999999999999,ethanol,,,CCC[N+]1(C)CCCC1.O=S(=O)([N-]S(=O)(=O)C(F)(F)F)C(F)(F)F,1-methyl-1-propylpyrrolidinium bis[(trifluoromethyl)sulfonyl]imide,ABabds,CCO,ethanol,AAIsrh,CCC[N+]1(C)CCCC1,O=S(=O)([N-]S(=O)(=O)C(F)(F)F)C(F)(F)F,2,0.2816,,,954,False,CCC[N+]1(C)CCCC1.O=S(=O)([N-]S(=O)(=O)C(F)(F)F)C(F)(F)F,No changes
skngH,308.15,101.0,1340.16,Gonzalez and Gonzalez (2014),Liquid,0.5918,ethanol,,,CCC[N+]1(C)CCCC1.O=S(=O)([N-]S(=O)(=O)C(F)(F)F)C(F)(F)F,1-methyl-1-propylpyrrolidinium bis[(trifluoromethyl)sulfonyl]imide,ABabds,CCO,ethanol,AAIsrh,CCC[N+]1(C)CCCC1,O=S(=O)([N-]S(=O)(=O)C(F)(F)F)C(F)(F)F,2,0.4082,,,955,False,CCC[N+]1(C)CCCC1.O=S(=O)([N-]S(=O)(=O)C(F)(F)F)C(F)(F)F,No changes
skngH,308.15,101.0,1305.65,Gonzalez and Gonzalez (2014),Liquid,0.4857,ethanol,,,CCC[N+]1(C)CCCC1.O=S(=O)([N-]S(=O)(=O)C(F)(F)F)C(F)(F)F,1-methyl-1-propylpyrrolidinium bis[(trifluoromethyl)sulfonyl]imide,ABabds,CCO,ethanol,AAIsrh,CCC[N+]1(C)CCCC1,O=S(=O)([N-]S(=O)(=O)C(F)(F)F)C(F)(F)F,2,0.5143,,,956,False,CCC[N+]1(C)CCCC1.O=S(=O)([N-]S(=O)(=O)C(F)(F)F)C(F)(F)F,No changes
skngH,308.15,101.0,1266.14,Gonzalez and Gonzalez (2014),Liquid,0.3923,ethanol,,,CCC[N+]1(C)CCCC1.O=S(=O)([N-]S(=O)(=O)C(F)(F)F)C(F)(F)F,1-methyl-1-propylpyrrolidinium bis[(trifluoromethyl)sulfonyl]imide,ABabds,CCO,ethanol,AAIsrh,CCC[N+]1(C)CCCC1,O=S(=O)([N-]S(=O)(=O)C(F)(F)F)C(F)(F)F,2,0.6077,,,957,False,CCC[N+]1(C)CCCC1.O=S(=O)([N-]S(=O)(=O)C(F)(F)F)C(F)(F)F,No changes
skngH,308.15,101.0,1209.77,Gonzalez and Gonzalez (2014),Liquid,0.2941,ethanol,,,CCC[N+]1(C)CCCC1.O=S(=O)([N-]S(=O)(=O)C(F)(F)F)C(F)(F)F,1-methyl-1-propylpyrrolidinium bis[(trifluoromethyl)sulfonyl]imide,ABabds,CCO,ethanol,AAIsrh,CCC[N+]1(C)CCCC1,O=S(=O)([N-]S(=O)(=O)C(F)(F)F)C(F)(F)F,2,0.7059,,,958,False,CCC[N+]1(C)CCCC1.O=S(=O)([N-]S(=O)(=O)C(F)(F)F)C(F)(F)F,No changes
skngH,308.15,101.0,1129.48,Gonzalez and Gonzalez (2014),Liquid,0.1966,ethanol,,,CCC[N+]1(C)CCCC1.O=S(=O)([N-]S(=O)(=O)C(F)(F)F)C(F)(F)F,1-methyl-1-propylpyrrolidinium bis[(trifluoromethyl)sulfonyl]imide,ABabds,CCO,ethanol,AAIsrh,CCC[N+]1(C)CCCC1,O=S(=O)([N-]S(=O)(=O)C(F)(F)F)C(F)(F)F,2,0.8034,,,959,False,CCC[N+]1(C)CCCC1.O=S(=O)([N-]S(=O)(=O)C(F)(F)F)C(F)(F)F,No changes
skngH,308.15,101.0,1005.72,Gonzalez and Gonzalez (2014),Liquid,0.0998,ethanol,,,CCC[N+]1(C)CCCC1.O=S(=O)([N-]S(=O)(=O)C(F)(F)F)C(F)(F)F,1-methyl-1-propylpyrrolidinium bis[(trifluoromethyl)sulfonyl]imide,ABabds,CCO,ethanol,AAIsrh,CCC[N+]1(C)CCCC1,O=S(=O)([N-]S(=O)(=O)C(F)(F)F)C(F)(F)F,2,0.9002,,,960,False,CCC[N+]1(C)CCCC1.O=S(=O)([N-]S(=O)(=O)C(F)(F)F)C(F)(F)F,No changes
skngH,308.15,101.0,917.93,Gonzalez and Gonzalez (2014),Liquid,0.0532,ethanol,,,CCC[N+]1(C)CCCC1.O=S(=O)([N-]S(=O)(=O)C(F)(F)F)C(F)(F)F,1-methyl-1-propylpyrrolidinium bis[(trifluoromethyl)sulfonyl]imide,ABabds,CCO,ethanol,AAIsrh,CCC[N+]1(C)CCCC1,O=S(=O)([N-]S(=O)(=O)C(F)(F)F)C(F)(F)F,2,0.9468,,,961,False,CCC[N+]1(C)CCCC1.O=S(=O)([N-]S(=O)(=O)C(F)(F)F)C(F)(F)F,No changes
skngH,308.15,101.0,776.81,Gonzalez and Gonzalez (2014),Liquid,0.0,ethanol,,,CCC[N+]1(C)CCCC1.O=S(=O)([N-]S(=O)(=O)C(F)(F)F)C(F)(F)F,1-methyl-1-propylpyrrolidinium bis[(trifluoromethyl)sulfonyl]imide,ABabds,CCO,ethanol,AAIsrh,CCC[N+]1(C)CCCC1,O=S(=O)([N-]S(=O)(=O)C(F)(F)F)C(F)(F)F,2,1.0,,,962,False,CCC[N+]1(C)CCCC1.O=S(=O)([N-]S(=O)(=O)C(F)(F)F)C(F)(F)F,No changes
pJaXl,293.15,101.3,789.5,Hou et al. (2011),Liquid,0.0,1-ethyl-3-methylimidazolium acetate,,,CC[n+]1ccn(C)c1.CC(=O)[O-],1-ethyl-3-methylimidazolium acetate,AAgmaR,CCO,ethanol,AAIsrh,CC[n+]1ccn(C)c1,CC(=O)[O-],2,,,,963,False,CC[n+]1ccn(C)c1.CC(=O)[O-],No changes
pJaXl,293.15,101.3,832.0,Hou et al. (2011),Liquid,0.0506,1-ethyl-3-methylimidazolium acetate,,,CC[n+]1ccn(C)c1.CC(=O)[O-],1-ethyl-3-methylimidazolium acetate,AAgmaR,CCO,ethanol,AAIsrh,CC[n+]1ccn(C)c1,CC(=O)[O-],2,,,,964,False,CC[n+]1ccn(C)c1.CC(=O)[O-],No changes
pJaXl,293.15,101.3,840.2,Hou et al. (2011),Liquid,0.0617,1-ethyl-3-methylimidazolium acetate,,,CC[n+]1ccn(C)c1.CC(=O)[O-],1-ethyl-3-methylimidazolium acetate,AAgmaR,CCO,ethanol,AAIsrh,CC[n+]1ccn(C)c1,CC(=O)[O-],2,,,,965,False,CC[n+]1ccn(C)c1.CC(=O)[O-],No changes
pJaXl,293.15,101.3,846.6,Hou et al. (2011),Liquid,0.0701,1-ethyl-3-methylimidazolium acetate,,,CC[n+]1ccn(C)c1.CC(=O)[O-],1-ethyl-3-methylimidazolium acetate,AAgmaR,CCO,ethanol,AAIsrh,CC[n+]1ccn(C)c1,CC(=O)[O-],2,,,,966,False,CC[n+]1ccn(C)c1.CC(=O)[O-],No changes
pJaXl,293.15,101.3,856.2,Hou et al. (2011),Liquid,0.0837,1-ethyl-3-methylimidazolium acetate,,,CC[n+]1ccn(C)c1.CC(=O)[O-],1-ethyl-3-methylimidazolium acetate,AAgmaR,CCO,ethanol,AAIsrh,CC[n+]1ccn(C)c1,CC(=O)[O-],2,,,,967,False,CC[n+]1ccn(C)c1.CC(=O)[O-],No changes
pJaXl,293.15,101.3,874.1,Hou et al. (2011),Liquid,0.1103,1-ethyl-3-methylimidazolium acetate,,,CC[n+]1ccn(C)c1.CC(=O)[O-],1-ethyl-3-methylimidazolium acetate,AAgmaR,CCO,ethanol,AAIsrh,CC[n+]1ccn(C)c1,CC(=O)[O-],2,,,,968,False,CC[n+]1ccn(C)c1.CC(=O)[O-],No changes
pJaXl,293.15,101.3,920.7,Hou et al. (2011),Liquid,0.1919,1-ethyl-3-methylimidazolium acetate,,,CC[n+]1ccn(C)c1.CC(=O)[O-],1-ethyl-3-methylimidazolium acetate,AAgmaR,CCO,ethanol,AAIsrh,CC[n+]1ccn(C)c1,CC(=O)[O-],2,,,,969,False,CC[n+]1ccn(C)c1.CC(=O)[O-],No changes
pJaXl,293.15,101.3,936.5,Hou et al. (2011),Liquid,0.2246,1-ethyl-3-methylimidazolium acetate,,,CC[n+]1ccn(C)c1.CC(=O)[O-],1-ethyl-3-methylimidazolium acetate,AAgmaR,CCO,ethanol,AAIsrh,CC[n+]1ccn(C)c1,CC(=O)[O-],2,,,,970,False,CC[n+]1ccn(C)c1.CC(=O)[O-],No changes
pJaXl,293.15,101.3,942.4,Hou et al. (2011),Liquid,0.2375,1-ethyl-3-methylimidazolium acetate,,,CC[n+]1ccn(C)c1.CC(=O)[O-],1-ethyl-3-methylimidazolium acetate,AAgmaR,CCO,ethanol,AAIsrh,CC[n+]1ccn(C)c1,CC(=O)[O-],2,,,,971,False,CC[n+]1ccn(C)c1.CC(=O)[O-],No changes
pJaXl,293.15,101.3,955.9,Hou et al. (2011),Liquid,0.2691,1-ethyl-3-methylimidazolium acetate,,,CC[n+]1ccn(C)c1.CC(=O)[O-],1-ethyl-3-methylimidazolium acetate,AAgmaR,CCO,ethanol,AAIsrh,CC[n+]1ccn(C)c1,CC(=O)[O-],2,,,,972,False,CC[n+]1ccn(C)c1.CC(=O)[O-],No changes
pJaXl,293.15,101.3,1018.9,Hou et al. (2011),Liquid,0.4627,1-ethyl-3-methylimidazolium acetate,,,CC[n+]1ccn(C)c1.CC(=O)[O-],1-ethyl-3-methylimidazolium acetate,AAgmaR,CCO,ethanol,AAIsrh,CC[n+]1ccn(C)c1,CC(=O)[O-],2,,,,973,False,CC[n+]1ccn(C)c1.CC(=O)[O-],No changes
pJaXl,293.15,101.3,1043.3,Hou et al. (2011),Liquid,0.5714,1-ethyl-3-methylimidazolium acetate,,,CC[n+]1ccn(C)c1.CC(=O)[O-],1-ethyl-3-methylimidazolium acetate,AAgmaR,CCO,ethanol,AAIsrh,CC[n+]1ccn(C)c1,CC(=O)[O-],2,,,,974,False,CC[n+]1ccn(C)c1.CC(=O)[O-],No changes
pJaXl,293.15,101.3,1066.8,Hou et al. (2011),Liquid,0.7035,1-ethyl-3-methylimidazolium acetate,,,CC[n+]1ccn(C)c1.CC(=O)[O-],1-ethyl-3-methylimidazolium acetate,AAgmaR,CCO,ethanol,AAIsrh,CC[n+]1ccn(C)c1,CC(=O)[O-],2,,,,975,False,CC[n+]1ccn(C)c1.CC(=O)[O-],No changes
pJaXl,293.15,101.3,1089.9,Hou et al. (2011),Liquid,0.8771,1-ethyl-3-methylimidazolium acetate,,,CC[n+]1ccn(C)c1.CC(=O)[O-],1-ethyl-3-methylimidazolium acetate,AAgmaR,CCO,ethanol,AAIsrh,CC[n+]1ccn(C)c1,CC(=O)[O-],2,,,,976,False,CC[n+]1ccn(C)c1.CC(=O)[O-],No changes
pJaXl,293.15,101.3,1095.4,Hou et al. (2011),Liquid,0.9267,1-ethyl-3-methylimidazolium acetate,,,CC[n+]1ccn(C)c1.CC(=O)[O-],1-ethyl-3-methylimidazolium acetate,AAgmaR,CCO,ethanol,AAIsrh,CC[n+]1ccn(C)c1,CC(=O)[O-],2,,,,977,False,CC[n+]1ccn(C)c1.CC(=O)[O-],No changes
pJaXl,293.15,101.3,1102.7,Hou et al. (2011),Liquid,1.0,1-ethyl-3-methylimidazolium acetate,,,CC[n+]1ccn(C)c1.CC(=O)[O-],1-ethyl-3-methylimidazolium acetate,AAgmaR,CCO,ethanol,AAIsrh,CC[n+]1ccn(C)c1,CC(=O)[O-],2,,,,978,False,CC[n+]1ccn(C)c1.CC(=O)[O-],No changes
tUQng,293.15,101.0,786.0,Wang et al. (2011f),Liquid,0.0,1-ethyl-3-methylimidazolium methyl sulfate,,,CC[n+]1ccn(C)c1.COS(=O)(=O)[O-],1-ethyl-3-methylimidazolium methyl sulfate,AAqmVN,CCO,ethanol,AAIsrh,CC[n+]1ccn(C)c1,COS(=O)(=O)[O-],2,,,,979,False,CC[n+]1ccn(C)c1.COS(=O)(=O)[O-],No changes
tUQng,293.15,101.0,839.0,Wang et al. (2011f),Liquid,0.04,1-ethyl-3-methylimidazolium methyl sulfate,,,CC[n+]1ccn(C)c1.COS(=O)(=O)[O-],1-ethyl-3-methylimidazolium methyl sulfate,AAqmVN,CCO,ethanol,AAIsrh,CC[n+]1ccn(C)c1,COS(=O)(=O)[O-],2,,,,980,False,CC[n+]1ccn(C)c1.COS(=O)(=O)[O-],No changes
tUQng,293.15,101.0,863.0,Wang et al. (2011f),Liquid,0.0597,1-ethyl-3-methylimidazolium methyl sulfate,,,CC[n+]1ccn(C)c1.COS(=O)(=O)[O-],1-ethyl-3-methylimidazolium methyl sulfate,AAqmVN,CCO,ethanol,AAIsrh,CC[n+]1ccn(C)c1,COS(=O)(=O)[O-],2,,,,981,False,CC[n+]1ccn(C)c1.COS(=O)(=O)[O-],No changes
tUQng,293.15,101.0,886.0,Wang et al. (2011f),Liquid,0.08,1-ethyl-3-methylimidazolium methyl sulfate,,,CC[n+]1ccn(C)c1.COS(=O)(=O)[O-],1-ethyl-3-methylimidazolium methyl sulfate,AAqmVN,CCO,ethanol,AAIsrh,CC[n+]1ccn(C)c1,COS(=O)(=O)[O-],2,,,,982,False,CC[n+]1ccn(C)c1.COS(=O)(=O)[O-],No changes
tUQng,293.15,101.0,906.0,Wang et al. (2011f),Liquid,0.0999,1-ethyl-3-methylimidazolium methyl sulfate,,,CC[n+]1ccn(C)c1.COS(=O)(=O)[O-],1-ethyl-3-methylimidazolium methyl sulfate,AAqmVN,CCO,ethanol,AAIsrh,CC[n+]1ccn(C)c1,COS(=O)(=O)[O-],2,,,,983,False,CC[n+]1ccn(C)c1.COS(=O)(=O)[O-],No changes
tUQng,293.15,101.0,995.0,Wang et al. (2011f),Liquid,0.2,1-ethyl-3-methylimidazolium methyl sulfate,,,CC[n+]1ccn(C)c1.COS(=O)(=O)[O-],1-ethyl-3-methylimidazolium methyl sulfate,AAqmVN,CCO,ethanol,AAIsrh,CC[n+]1ccn(C)c1,COS(=O)(=O)[O-],2,,,,984,False,CC[n+]1ccn(C)c1.COS(=O)(=O)[O-],No changes
tUQng,293.15,101.0,1065.0,Wang et al. (2011f),Liquid,0.3,1-ethyl-3-methylimidazolium methyl sulfate,,,CC[n+]1ccn(C)c1.COS(=O)(=O)[O-],1-ethyl-3-methylimidazolium methyl sulfate,AAqmVN,CCO,ethanol,AAIsrh,CC[n+]1ccn(C)c1,COS(=O)(=O)[O-],2,,,,985,False,CC[n+]1ccn(C)c1.COS(=O)(=O)[O-],No changes
tUQng,293.15,101.0,1113.0,Wang et al. (2011f),Liquid,0.4,1-ethyl-3-methylimidazolium methyl sulfate,,,CC[n+]1ccn(C)c1.COS(=O)(=O)[O-],1-ethyl-3-methylimidazolium methyl sulfate,AAqmVN,CCO,ethanol,AAIsrh,CC[n+]1ccn(C)c1,COS(=O)(=O)[O-],2,,,,986,False,CC[n+]1ccn(C)c1.COS(=O)(=O)[O-],No changes
tUQng,293.15,101.0,1150.0,Wang et al. (2011f),Liquid,0.5,1-ethyl-3-methylimidazolium methyl sulfate,,,CC[n+]1ccn(C)c1.COS(=O)(=O)[O-],1-ethyl-3-methylimidazolium methyl sulfate,AAqmVN,CCO,ethanol,AAIsrh,CC[n+]1ccn(C)c1,COS(=O)(=O)[O-],2,,,,987,False,CC[n+]1ccn(C)c1.COS(=O)(=O)[O-],No changes
tUQng,293.15,101.0,1180.0,Wang et al. (2011f),Liquid,0.5998,1-ethyl-3-methylimidazolium methyl sulfate,,,CC[n+]1ccn(C)c1.COS(=O)(=O)[O-],1-ethyl-3-methylimidazolium methyl sulfate,AAqmVN,CCO,ethanol,AAIsrh,CC[n+]1ccn(C)c1,COS(=O)(=O)[O-],2,,,,988,False,CC[n+]1ccn(C)c1.COS(=O)(=O)[O-],No changes
tUQng,293.15,101.0,1205.0,Wang et al. (2011f),Liquid,0.6993,1-ethyl-3-methylimidazolium methyl sulfate,,,CC[n+]1ccn(C)c1.COS(=O)(=O)[O-],1-ethyl-3-methylimidazolium methyl sulfate,AAqmVN,CCO,ethanol,AAIsrh,CC[n+]1ccn(C)c1,COS(=O)(=O)[O-],2,,,,989,False,CC[n+]1ccn(C)c1.COS(=O)(=O)[O-],No changes
tUQng,293.15,101.0,1227.0,Wang et al. (2011f),Liquid,0.8005,1-ethyl-3-methylimidazolium methyl sulfate,,,CC[n+]1ccn(C)c1.COS(=O)(=O)[O-],1-ethyl-3-methylimidazolium methyl sulfate,AAqmVN,CCO,ethanol,AAIsrh,CC[n+]1ccn(C)c1,COS(=O)(=O)[O-],2,,,,990,False,CC[n+]1ccn(C)c1.COS(=O)(=O)[O-],No changes
tUQng,293.15,101.0,1246.0,Wang et al. (2011f),Liquid,0.9009,1-ethyl-3-methylimidazolium methyl sulfate,,,CC[n+]1ccn(C)c1.COS(=O)(=O)[O-],1-ethyl-3-methylimidazolium methyl sulfate,AAqmVN,CCO,ethanol,AAIsrh,CC[n+]1ccn(C)c1,COS(=O)(=O)[O-],2,,,,991,False,CC[n+]1ccn(C)c1.COS(=O)(=O)[O-],No changes
tUQng,293.15,101.0,1263.0,Wang et al. (2011f),Liquid,1.0,1-ethyl-3-methylimidazolium methyl sulfate,,,CC[n+]1ccn(C)c1.COS(=O)(=O)[O-],1-ethyl-3-methylimidazolium methyl sulfate,AAqmVN,CCO,ethanol,AAIsrh,CC[n+]1ccn(C)c1,COS(=O)(=O)[O-],2,,,,992,False,CC[n+]1ccn(C)c1.COS(=O)(=O)[O-],No changes
jTciS,293.15,100.0,1397.1,Massel et al. (2015),Liquid,1.0,ethanol,,,CCCC[N+](C)(C)C.O=S(=O)([N-]S(=O)(=O)C(F)(F)F)C(F)(F)F,butyltrimethylammonium bis(trifluoromethylsulfonyl)imide,ABYLZx,CCO,ethanol,AAIsrh,CCCC[N+](C)(C)C,O=S(=O)([N-]S(=O)(=O)C(F)(F)F)C(F)(F)F,2,0.0,,,993,False,CCCC[N+](C)(C)C.O=S(=O)([N-]S(=O)(=O)C(F)(F)F)C(F)(F)F,No changes