setid,Temperature (K),Pressure (kPa),Density (kg/m3),reference,phases,Mole fraction,Mole fraction of compound name,Weight fraction,Weight fraction of compound name,IL_SMILES,IL_name,IL_ID,Solvent_SMILES,Solvent_name,Solvent_ID,IL_cation_SMILES,IL_anion_SMILES,IL_component_number,Mole fraction of solvent,IL_MW,Solvent_MW,Record_ID,Contains_Metal,Standardized_IL_SMILES,Changes
DnbGx,313.15,100.0,1059.7,Xing et al. (2019a),Liquid,1.0,1-butylpyridinium dicyanamide,,,CCCC[n+]1ccccc1.N#C[N-]C#N,1-butylpyridinium dicyanamide,AAmufZ,CC(C)O,propan-2-ol,AALcwx,CCCC[n+]1ccccc1,N#C[N-]C#N,2,,,,949,False,CCCC[n+]1ccccc1.N#C[N-]C#N,No changes
DnbGx,318.15,100.0,763.5,Xing et al. (2019a),Liquid,0.0,1-butylpyridinium dicyanamide,,,CCCC[n+]1ccccc1.N#C[N-]C#N,1-butylpyridinium dicyanamide,AAmufZ,CC(C)O,propan-2-ol,AALcwx,CCCC[n+]1ccccc1,N#C[N-]C#N,2,,,,950,False,CCCC[n+]1ccccc1.N#C[N-]C#N,No changes
DnbGx,318.15,100.0,834.5,Xing et al. (2019a),Liquid,0.1008,1-butylpyridinium dicyanamide,,,CCCC[n+]1ccccc1.N#C[N-]C#N,1-butylpyridinium dicyanamide,AAmufZ,CC(C)O,propan-2-ol,AALcwx,CCCC[n+]1ccccc1,N#C[N-]C#N,2,,,,951,False,CCCC[n+]1ccccc1.N#C[N-]C#N,No changes
DnbGx,318.15,100.0,885.1,Xing et al. (2019a),Liquid,0.2007,1-butylpyridinium dicyanamide,,,CCCC[n+]1ccccc1.N#C[N-]C#N,1-butylpyridinium dicyanamide,AAmufZ,CC(C)O,propan-2-ol,AALcwx,CCCC[n+]1ccccc1,N#C[N-]C#N,2,,,,952,False,CCCC[n+]1ccccc1.N#C[N-]C#N,No changes
DnbGx,318.15,100.0,923.9,Xing et al. (2019a),Liquid,0.3005,1-butylpyridinium dicyanamide,,,CCCC[n+]1ccccc1.N#C[N-]C#N,1-butylpyridinium dicyanamide,AAmufZ,CC(C)O,propan-2-ol,AALcwx,CCCC[n+]1ccccc1,N#C[N-]C#N,2,,,,953,False,CCCC[n+]1ccccc1.N#C[N-]C#N,No changes
DnbGx,318.15,100.0,954.5,Xing et al. (2019a),Liquid,0.3999,1-butylpyridinium dicyanamide,,,CCCC[n+]1ccccc1.N#C[N-]C#N,1-butylpyridinium dicyanamide,AAmufZ,CC(C)O,propan-2-ol,AALcwx,CCCC[n+]1ccccc1,N#C[N-]C#N,2,,,,954,False,CCCC[n+]1ccccc1.N#C[N-]C#N,No changes
DnbGx,318.15,100.0,979.9,Xing et al. (2019a),Liquid,0.5005,1-butylpyridinium dicyanamide,,,CCCC[n+]1ccccc1.N#C[N-]C#N,1-butylpyridinium dicyanamide,AAmufZ,CC(C)O,propan-2-ol,AALcwx,CCCC[n+]1ccccc1,N#C[N-]C#N,2,,,,955,False,CCCC[n+]1ccccc1.N#C[N-]C#N,No changes
DnbGx,318.15,100.0,1000.4,Xing et al. (2019a),Liquid,0.5998,1-butylpyridinium dicyanamide,,,CCCC[n+]1ccccc1.N#C[N-]C#N,1-butylpyridinium dicyanamide,AAmufZ,CC(C)O,propan-2-ol,AALcwx,CCCC[n+]1ccccc1,N#C[N-]C#N,2,,,,956,False,CCCC[n+]1ccccc1.N#C[N-]C#N,No changes
DnbGx,318.15,100.0,1017.8,Xing et al. (2019a),Liquid,0.7004,1-butylpyridinium dicyanamide,,,CCCC[n+]1ccccc1.N#C[N-]C#N,1-butylpyridinium dicyanamide,AAmufZ,CC(C)O,propan-2-ol,AALcwx,CCCC[n+]1ccccc1,N#C[N-]C#N,2,,,,957,False,CCCC[n+]1ccccc1.N#C[N-]C#N,No changes
DnbGx,318.15,100.0,1031.9,Xing et al. (2019a),Liquid,0.7972,1-butylpyridinium dicyanamide,,,CCCC[n+]1ccccc1.N#C[N-]C#N,1-butylpyridinium dicyanamide,AAmufZ,CC(C)O,propan-2-ol,AALcwx,CCCC[n+]1ccccc1,N#C[N-]C#N,2,,,,958,False,CCCC[n+]1ccccc1.N#C[N-]C#N,No changes
DnbGx,318.15,100.0,1045.2,Xing et al. (2019a),Liquid,0.9032,1-butylpyridinium dicyanamide,,,CCCC[n+]1ccccc1.N#C[N-]C#N,1-butylpyridinium dicyanamide,AAmufZ,CC(C)O,propan-2-ol,AALcwx,CCCC[n+]1ccccc1,N#C[N-]C#N,2,,,,959,False,CCCC[n+]1ccccc1.N#C[N-]C#N,No changes
DnbGx,318.15,100.0,1056.6,Xing et al. (2019a),Liquid,1.0,1-butylpyridinium dicyanamide,,,CCCC[n+]1ccccc1.N#C[N-]C#N,1-butylpyridinium dicyanamide,AAmufZ,CC(C)O,propan-2-ol,AALcwx,CCCC[n+]1ccccc1,N#C[N-]C#N,2,,,,960,False,CCCC[n+]1ccccc1.N#C[N-]C#N,No changes
RTMou,278.15,101.0,868.82,Vercher et al. (2011b),Liquid,0.0499,1-ethyl-3-methylimidazolium trifluoromethanesulfonate,,,CC[n+]1ccn(C)c1.O=S(=O)([O-])C(F)(F)F,1-ethyl-3-methylimidazolium trifluoromethanesulfonate,AAyCVz,CC(C)O,propan-2-ol,AALcwx,CC[n+]1ccn(C)c1,O=S(=O)([O-])C(F)(F)F,2,,,,961,False,CC[n+]1ccn(C)c1.O=S(=O)([O-])C(F)(F)F,No changes
RTMou,278.15,101.0,929.8,Vercher et al. (2011b),Liquid,0.0996,1-ethyl-3-methylimidazolium trifluoromethanesulfonate,,,CC[n+]1ccn(C)c1.O=S(=O)([O-])C(F)(F)F,1-ethyl-3-methylimidazolium trifluoromethanesulfonate,AAyCVz,CC(C)O,propan-2-ol,AALcwx,CC[n+]1ccn(C)c1,O=S(=O)([O-])C(F)(F)F,2,,,,962,False,CC[n+]1ccn(C)c1.O=S(=O)([O-])C(F)(F)F,No changes
RTMou,278.15,101.0,984.2,Vercher et al. (2011b),Liquid,0.15,1-ethyl-3-methylimidazolium trifluoromethanesulfonate,,,CC[n+]1ccn(C)c1.O=S(=O)([O-])C(F)(F)F,1-ethyl-3-methylimidazolium trifluoromethanesulfonate,AAyCVz,CC(C)O,propan-2-ol,AALcwx,CC[n+]1ccn(C)c1,O=S(=O)([O-])C(F)(F)F,2,,,,963,False,CC[n+]1ccn(C)c1.O=S(=O)([O-])C(F)(F)F,No changes
RTMou,278.15,101.0,1032.07,Vercher et al. (2011b),Liquid,0.2001,1-ethyl-3-methylimidazolium trifluoromethanesulfonate,,,CC[n+]1ccn(C)c1.O=S(=O)([O-])C(F)(F)F,1-ethyl-3-methylimidazolium trifluoromethanesulfonate,AAyCVz,CC(C)O,propan-2-ol,AALcwx,CC[n+]1ccn(C)c1,O=S(=O)([O-])C(F)(F)F,2,,,,964,False,CC[n+]1ccn(C)c1.O=S(=O)([O-])C(F)(F)F,No changes
RTMou,278.15,101.0,1111.77,Vercher et al. (2011b),Liquid,0.2994,1-ethyl-3-methylimidazolium trifluoromethanesulfonate,,,CC[n+]1ccn(C)c1.O=S(=O)([O-])C(F)(F)F,1-ethyl-3-methylimidazolium trifluoromethanesulfonate,AAyCVz,CC(C)O,propan-2-ol,AALcwx,CC[n+]1ccn(C)c1,O=S(=O)([O-])C(F)(F)F,2,,,,965,False,CC[n+]1ccn(C)c1.O=S(=O)([O-])C(F)(F)F,No changes
RTMou,278.15,101.0,1177.58,Vercher et al. (2011b),Liquid,0.4004,1-ethyl-3-methylimidazolium trifluoromethanesulfonate,,,CC[n+]1ccn(C)c1.O=S(=O)([O-])C(F)(F)F,1-ethyl-3-methylimidazolium trifluoromethanesulfonate,AAyCVz,CC(C)O,propan-2-ol,AALcwx,CC[n+]1ccn(C)c1,O=S(=O)([O-])C(F)(F)F,2,,,,966,False,CC[n+]1ccn(C)c1.O=S(=O)([O-])C(F)(F)F,No changes
RTMou,278.15,101.0,1231.42,Vercher et al. (2011b),Liquid,0.4997,1-ethyl-3-methylimidazolium trifluoromethanesulfonate,,,CC[n+]1ccn(C)c1.O=S(=O)([O-])C(F)(F)F,1-ethyl-3-methylimidazolium trifluoromethanesulfonate,AAyCVz,CC(C)O,propan-2-ol,AALcwx,CC[n+]1ccn(C)c1,O=S(=O)([O-])C(F)(F)F,2,,,,967,False,CC[n+]1ccn(C)c1.O=S(=O)([O-])C(F)(F)F,No changes
RTMou,278.15,101.0,1276.64,Vercher et al. (2011b),Liquid,0.5999,1-ethyl-3-methylimidazolium trifluoromethanesulfonate,,,CC[n+]1ccn(C)c1.O=S(=O)([O-])C(F)(F)F,1-ethyl-3-methylimidazolium trifluoromethanesulfonate,AAyCVz,CC(C)O,propan-2-ol,AALcwx,CC[n+]1ccn(C)c1,O=S(=O)([O-])C(F)(F)F,2,,,,968,False,CC[n+]1ccn(C)c1.O=S(=O)([O-])C(F)(F)F,No changes
RTMou,278.15,101.0,1315.15,Vercher et al. (2011b),Liquid,0.7019,1-ethyl-3-methylimidazolium trifluoromethanesulfonate,,,CC[n+]1ccn(C)c1.O=S(=O)([O-])C(F)(F)F,1-ethyl-3-methylimidazolium trifluoromethanesulfonate,AAyCVz,CC(C)O,propan-2-ol,AALcwx,CC[n+]1ccn(C)c1,O=S(=O)([O-])C(F)(F)F,2,,,,969,False,CC[n+]1ccn(C)c1.O=S(=O)([O-])C(F)(F)F,No changes
RTMou,278.15,101.0,1347.1,Vercher et al. (2011b),Liquid,0.7987,1-ethyl-3-methylimidazolium trifluoromethanesulfonate,,,CC[n+]1ccn(C)c1.O=S(=O)([O-])C(F)(F)F,1-ethyl-3-methylimidazolium trifluoromethanesulfonate,AAyCVz,CC(C)O,propan-2-ol,AALcwx,CC[n+]1ccn(C)c1,O=S(=O)([O-])C(F)(F)F,2,,,,970,False,CC[n+]1ccn(C)c1.O=S(=O)([O-])C(F)(F)F,No changes
RTMou,278.15,101.0,1362.9,Vercher et al. (2011b),Liquid,0.8519,1-ethyl-3-methylimidazolium trifluoromethanesulfonate,,,CC[n+]1ccn(C)c1.O=S(=O)([O-])C(F)(F)F,1-ethyl-3-methylimidazolium trifluoromethanesulfonate,AAyCVz,CC(C)O,propan-2-ol,AALcwx,CC[n+]1ccn(C)c1,O=S(=O)([O-])C(F)(F)F,2,,,,971,False,CC[n+]1ccn(C)c1.O=S(=O)([O-])C(F)(F)F,No changes
RTMou,278.15,101.0,1375.9,Vercher et al. (2011b),Liquid,0.8989,1-ethyl-3-methylimidazolium trifluoromethanesulfonate,,,CC[n+]1ccn(C)c1.O=S(=O)([O-])C(F)(F)F,1-ethyl-3-methylimidazolium trifluoromethanesulfonate,AAyCVz,CC(C)O,propan-2-ol,AALcwx,CC[n+]1ccn(C)c1,O=S(=O)([O-])C(F)(F)F,2,,,,972,False,CC[n+]1ccn(C)c1.O=S(=O)([O-])C(F)(F)F,No changes
RTMou,278.15,101.0,1388.4,Vercher et al. (2011b),Liquid,0.9462,1-ethyl-3-methylimidazolium trifluoromethanesulfonate,,,CC[n+]1ccn(C)c1.O=S(=O)([O-])C(F)(F)F,1-ethyl-3-methylimidazolium trifluoromethanesulfonate,AAyCVz,CC(C)O,propan-2-ol,AALcwx,CC[n+]1ccn(C)c1,O=S(=O)([O-])C(F)(F)F,2,,,,973,False,CC[n+]1ccn(C)c1.O=S(=O)([O-])C(F)(F)F,No changes
RTMou,288.15,101.0,860.62,Vercher et al. (2011b),Liquid,0.0499,1-ethyl-3-methylimidazolium trifluoromethanesulfonate,,,CC[n+]1ccn(C)c1.O=S(=O)([O-])C(F)(F)F,1-ethyl-3-methylimidazolium trifluoromethanesulfonate,AAyCVz,CC(C)O,propan-2-ol,AALcwx,CC[n+]1ccn(C)c1,O=S(=O)([O-])C(F)(F)F,2,,,,974,False,CC[n+]1ccn(C)c1.O=S(=O)([O-])C(F)(F)F,No changes
RTMou,288.15,101.0,921.53,Vercher et al. (2011b),Liquid,0.0996,1-ethyl-3-methylimidazolium trifluoromethanesulfonate,,,CC[n+]1ccn(C)c1.O=S(=O)([O-])C(F)(F)F,1-ethyl-3-methylimidazolium trifluoromethanesulfonate,AAyCVz,CC(C)O,propan-2-ol,AALcwx,CC[n+]1ccn(C)c1,O=S(=O)([O-])C(F)(F)F,2,,,,975,False,CC[n+]1ccn(C)c1.O=S(=O)([O-])C(F)(F)F,No changes
RTMou,288.15,101.0,975.84,Vercher et al. (2011b),Liquid,0.15,1-ethyl-3-methylimidazolium trifluoromethanesulfonate,,,CC[n+]1ccn(C)c1.O=S(=O)([O-])C(F)(F)F,1-ethyl-3-methylimidazolium trifluoromethanesulfonate,AAyCVz,CC(C)O,propan-2-ol,AALcwx,CC[n+]1ccn(C)c1,O=S(=O)([O-])C(F)(F)F,2,,,,976,False,CC[n+]1ccn(C)c1.O=S(=O)([O-])C(F)(F)F,No changes
RTMou,288.15,101.0,1023.66,Vercher et al. (2011b),Liquid,0.2001,1-ethyl-3-methylimidazolium trifluoromethanesulfonate,,,CC[n+]1ccn(C)c1.O=S(=O)([O-])C(F)(F)F,1-ethyl-3-methylimidazolium trifluoromethanesulfonate,AAyCVz,CC(C)O,propan-2-ol,AALcwx,CC[n+]1ccn(C)c1,O=S(=O)([O-])C(F)(F)F,2,,,,977,False,CC[n+]1ccn(C)c1.O=S(=O)([O-])C(F)(F)F,No changes
RTMou,288.15,101.0,1103.29,Vercher et al. (2011b),Liquid,0.2994,1-ethyl-3-methylimidazolium trifluoromethanesulfonate,,,CC[n+]1ccn(C)c1.O=S(=O)([O-])C(F)(F)F,1-ethyl-3-methylimidazolium trifluoromethanesulfonate,AAyCVz,CC(C)O,propan-2-ol,AALcwx,CC[n+]1ccn(C)c1,O=S(=O)([O-])C(F)(F)F,2,,,,978,False,CC[n+]1ccn(C)c1.O=S(=O)([O-])C(F)(F)F,No changes
RTMou,288.15,101.0,1169.07,Vercher et al. (2011b),Liquid,0.4004,1-ethyl-3-methylimidazolium trifluoromethanesulfonate,,,CC[n+]1ccn(C)c1.O=S(=O)([O-])C(F)(F)F,1-ethyl-3-methylimidazolium trifluoromethanesulfonate,AAyCVz,CC(C)O,propan-2-ol,AALcwx,CC[n+]1ccn(C)c1,O=S(=O)([O-])C(F)(F)F,2,,,,979,False,CC[n+]1ccn(C)c1.O=S(=O)([O-])C(F)(F)F,No changes
RTMou,288.15,101.0,1222.91,Vercher et al. (2011b),Liquid,0.4997,1-ethyl-3-methylimidazolium trifluoromethanesulfonate,,,CC[n+]1ccn(C)c1.O=S(=O)([O-])C(F)(F)F,1-ethyl-3-methylimidazolium trifluoromethanesulfonate,AAyCVz,CC(C)O,propan-2-ol,AALcwx,CC[n+]1ccn(C)c1,O=S(=O)([O-])C(F)(F)F,2,,,,980,False,CC[n+]1ccn(C)c1.O=S(=O)([O-])C(F)(F)F,No changes
RTMou,288.15,101.0,1268.13,Vercher et al. (2011b),Liquid,0.5999,1-ethyl-3-methylimidazolium trifluoromethanesulfonate,,,CC[n+]1ccn(C)c1.O=S(=O)([O-])C(F)(F)F,1-ethyl-3-methylimidazolium trifluoromethanesulfonate,AAyCVz,CC(C)O,propan-2-ol,AALcwx,CC[n+]1ccn(C)c1,O=S(=O)([O-])C(F)(F)F,2,,,,981,False,CC[n+]1ccn(C)c1.O=S(=O)([O-])C(F)(F)F,No changes
RTMou,288.15,101.0,1306.65,Vercher et al. (2011b),Liquid,0.7019,1-ethyl-3-methylimidazolium trifluoromethanesulfonate,,,CC[n+]1ccn(C)c1.O=S(=O)([O-])C(F)(F)F,1-ethyl-3-methylimidazolium trifluoromethanesulfonate,AAyCVz,CC(C)O,propan-2-ol,AALcwx,CC[n+]1ccn(C)c1,O=S(=O)([O-])C(F)(F)F,2,,,,982,False,CC[n+]1ccn(C)c1.O=S(=O)([O-])C(F)(F)F,No changes
RTMou,288.15,101.0,1338.6,Vercher et al. (2011b),Liquid,0.7987,1-ethyl-3-methylimidazolium trifluoromethanesulfonate,,,CC[n+]1ccn(C)c1.O=S(=O)([O-])C(F)(F)F,1-ethyl-3-methylimidazolium trifluoromethanesulfonate,AAyCVz,CC(C)O,propan-2-ol,AALcwx,CC[n+]1ccn(C)c1,O=S(=O)([O-])C(F)(F)F,2,,,,983,False,CC[n+]1ccn(C)c1.O=S(=O)([O-])C(F)(F)F,No changes
RTMou,288.15,101.0,1354.4,Vercher et al. (2011b),Liquid,0.8519,1-ethyl-3-methylimidazolium trifluoromethanesulfonate,,,CC[n+]1ccn(C)c1.O=S(=O)([O-])C(F)(F)F,1-ethyl-3-methylimidazolium trifluoromethanesulfonate,AAyCVz,CC(C)O,propan-2-ol,AALcwx,CC[n+]1ccn(C)c1,O=S(=O)([O-])C(F)(F)F,2,,,,984,False,CC[n+]1ccn(C)c1.O=S(=O)([O-])C(F)(F)F,No changes
RTMou,288.15,101.0,1367.5,Vercher et al. (2011b),Liquid,0.8989,1-ethyl-3-methylimidazolium trifluoromethanesulfonate,,,CC[n+]1ccn(C)c1.O=S(=O)([O-])C(F)(F)F,1-ethyl-3-methylimidazolium trifluoromethanesulfonate,AAyCVz,CC(C)O,propan-2-ol,AALcwx,CC[n+]1ccn(C)c1,O=S(=O)([O-])C(F)(F)F,2,,,,985,False,CC[n+]1ccn(C)c1.O=S(=O)([O-])C(F)(F)F,No changes
RTMou,288.15,101.0,1379.9,Vercher et al. (2011b),Liquid,0.9462,1-ethyl-3-methylimidazolium trifluoromethanesulfonate,,,CC[n+]1ccn(C)c1.O=S(=O)([O-])C(F)(F)F,1-ethyl-3-methylimidazolium trifluoromethanesulfonate,AAyCVz,CC(C)O,propan-2-ol,AALcwx,CC[n+]1ccn(C)c1,O=S(=O)([O-])C(F)(F)F,2,,,,986,False,CC[n+]1ccn(C)c1.O=S(=O)([O-])C(F)(F)F,No changes
RTMou,298.15,101.0,852.27,Vercher et al. (2011b),Liquid,0.0499,1-ethyl-3-methylimidazolium trifluoromethanesulfonate,,,CC[n+]1ccn(C)c1.O=S(=O)([O-])C(F)(F)F,1-ethyl-3-methylimidazolium trifluoromethanesulfonate,AAyCVz,CC(C)O,propan-2-ol,AALcwx,CC[n+]1ccn(C)c1,O=S(=O)([O-])C(F)(F)F,2,,,,987,False,CC[n+]1ccn(C)c1.O=S(=O)([O-])C(F)(F)F,No changes
RTMou,298.15,101.0,913.15,Vercher et al. (2011b),Liquid,0.0996,1-ethyl-3-methylimidazolium trifluoromethanesulfonate,,,CC[n+]1ccn(C)c1.O=S(=O)([O-])C(F)(F)F,1-ethyl-3-methylimidazolium trifluoromethanesulfonate,AAyCVz,CC(C)O,propan-2-ol,AALcwx,CC[n+]1ccn(C)c1,O=S(=O)([O-])C(F)(F)F,2,,,,988,False,CC[n+]1ccn(C)c1.O=S(=O)([O-])C(F)(F)F,No changes
RTMou,298.15,101.0,967.41,Vercher et al. (2011b),Liquid,0.15,1-ethyl-3-methylimidazolium trifluoromethanesulfonate,,,CC[n+]1ccn(C)c1.O=S(=O)([O-])C(F)(F)F,1-ethyl-3-methylimidazolium trifluoromethanesulfonate,AAyCVz,CC(C)O,propan-2-ol,AALcwx,CC[n+]1ccn(C)c1,O=S(=O)([O-])C(F)(F)F,2,,,,989,False,CC[n+]1ccn(C)c1.O=S(=O)([O-])C(F)(F)F,No changes
RTMou,298.15,101.0,1015.19,Vercher et al. (2011b),Liquid,0.2001,1-ethyl-3-methylimidazolium trifluoromethanesulfonate,,,CC[n+]1ccn(C)c1.O=S(=O)([O-])C(F)(F)F,1-ethyl-3-methylimidazolium trifluoromethanesulfonate,AAyCVz,CC(C)O,propan-2-ol,AALcwx,CC[n+]1ccn(C)c1,O=S(=O)([O-])C(F)(F)F,2,,,,990,False,CC[n+]1ccn(C)c1.O=S(=O)([O-])C(F)(F)F,No changes
RTMou,298.15,101.0,1094.81,Vercher et al. (2011b),Liquid,0.2994,1-ethyl-3-methylimidazolium trifluoromethanesulfonate,,,CC[n+]1ccn(C)c1.O=S(=O)([O-])C(F)(F)F,1-ethyl-3-methylimidazolium trifluoromethanesulfonate,AAyCVz,CC(C)O,propan-2-ol,AALcwx,CC[n+]1ccn(C)c1,O=S(=O)([O-])C(F)(F)F,2,,,,991,False,CC[n+]1ccn(C)c1.O=S(=O)([O-])C(F)(F)F,No changes
RTMou,298.15,101.0,1160.58,Vercher et al. (2011b),Liquid,0.4004,1-ethyl-3-methylimidazolium trifluoromethanesulfonate,,,CC[n+]1ccn(C)c1.O=S(=O)([O-])C(F)(F)F,1-ethyl-3-methylimidazolium trifluoromethanesulfonate,AAyCVz,CC(C)O,propan-2-ol,AALcwx,CC[n+]1ccn(C)c1,O=S(=O)([O-])C(F)(F)F,2,,,,992,False,CC[n+]1ccn(C)c1.O=S(=O)([O-])C(F)(F)F,No changes
RTMou,298.15,101.0,1214.45,Vercher et al. (2011b),Liquid,0.4997,1-ethyl-3-methylimidazolium trifluoromethanesulfonate,,,CC[n+]1ccn(C)c1.O=S(=O)([O-])C(F)(F)F,1-ethyl-3-methylimidazolium trifluoromethanesulfonate,AAyCVz,CC(C)O,propan-2-ol,AALcwx,CC[n+]1ccn(C)c1,O=S(=O)([O-])C(F)(F)F,2,,,,993,False,CC[n+]1ccn(C)c1.O=S(=O)([O-])C(F)(F)F,No changes
RTMou,298.15,101.0,1259.68,Vercher et al. (2011b),Liquid,0.5999,1-ethyl-3-methylimidazolium trifluoromethanesulfonate,,,CC[n+]1ccn(C)c1.O=S(=O)([O-])C(F)(F)F,1-ethyl-3-methylimidazolium trifluoromethanesulfonate,AAyCVz,CC(C)O,propan-2-ol,AALcwx,CC[n+]1ccn(C)c1,O=S(=O)([O-])C(F)(F)F,2,,,,994,False,CC[n+]1ccn(C)c1.O=S(=O)([O-])C(F)(F)F,No changes
RTMou,298.15,101.0,1298.2,Vercher et al. (2011b),Liquid,0.7019,1-ethyl-3-methylimidazolium trifluoromethanesulfonate,,,CC[n+]1ccn(C)c1.O=S(=O)([O-])C(F)(F)F,1-ethyl-3-methylimidazolium trifluoromethanesulfonate,AAyCVz,CC(C)O,propan-2-ol,AALcwx,CC[n+]1ccn(C)c1,O=S(=O)([O-])C(F)(F)F,2,,,,995,False,CC[n+]1ccn(C)c1.O=S(=O)([O-])C(F)(F)F,No changes
RTMou,298.15,101.0,1330.2,Vercher et al. (2011b),Liquid,0.7987,1-ethyl-3-methylimidazolium trifluoromethanesulfonate,,,CC[n+]1ccn(C)c1.O=S(=O)([O-])C(F)(F)F,1-ethyl-3-methylimidazolium trifluoromethanesulfonate,AAyCVz,CC(C)O,propan-2-ol,AALcwx,CC[n+]1ccn(C)c1,O=S(=O)([O-])C(F)(F)F,2,,,,996,False,CC[n+]1ccn(C)c1.O=S(=O)([O-])C(F)(F)F,No changes
RTMou,298.15,101.0,1346.0,Vercher et al. (2011b),Liquid,0.8519,1-ethyl-3-methylimidazolium trifluoromethanesulfonate,,,CC[n+]1ccn(C)c1.O=S(=O)([O-])C(F)(F)F,1-ethyl-3-methylimidazolium trifluoromethanesulfonate,AAyCVz,CC(C)O,propan-2-ol,AALcwx,CC[n+]1ccn(C)c1,O=S(=O)([O-])C(F)(F)F,2,,,,997,False,CC[n+]1ccn(C)c1.O=S(=O)([O-])C(F)(F)F,No changes
RTMou,298.15,101.0,1359.0,Vercher et al. (2011b),Liquid,0.8989,1-ethyl-3-methylimidazolium trifluoromethanesulfonate,,,CC[n+]1ccn(C)c1.O=S(=O)([O-])C(F)(F)F,1-ethyl-3-methylimidazolium trifluoromethanesulfonate,AAyCVz,CC(C)O,propan-2-ol,AALcwx,CC[n+]1ccn(C)c1,O=S(=O)([O-])C(F)(F)F,2,,,,998,False,CC[n+]1ccn(C)c1.O=S(=O)([O-])C(F)(F)F,No changes
RTMou,298.15,101.0,1371.5,Vercher et al. (2011b),Liquid,0.9462,1-ethyl-3-methylimidazolium trifluoromethanesulfonate,,,CC[n+]1ccn(C)c1.O=S(=O)([O-])C(F)(F)F,1-ethyl-3-methylimidazolium trifluoromethanesulfonate,AAyCVz,CC(C)O,propan-2-ol,AALcwx,CC[n+]1ccn(C)c1,O=S(=O)([O-])C(F)(F)F,2,,,,999,False,CC[n+]1ccn(C)c1.O=S(=O)([O-])C(F)(F)F,No changes
RTMou,308.15,101.0,843.73,Vercher et al. (2011b),Liquid,0.0499,1-ethyl-3-methylimidazolium trifluoromethanesulfonate,,,CC[n+]1ccn(C)c1.O=S(=O)([O-])C(F)(F)F,1-ethyl-3-methylimidazolium trifluoromethanesulfonate,AAyCVz,CC(C)O,propan-2-ol,AALcwx,CC[n+]1ccn(C)c1,O=S(=O)([O-])C(F)(F)F,2,,,,1000,False,CC[n+]1ccn(C)c1.O=S(=O)([O-])C(F)(F)F,No changes
RTMou,308.15,101.0,904.62,Vercher et al. (2011b),Liquid,0.0996,1-ethyl-3-methylimidazolium trifluoromethanesulfonate,,,CC[n+]1ccn(C)c1.O=S(=O)([O-])C(F)(F)F,1-ethyl-3-methylimidazolium trifluoromethanesulfonate,AAyCVz,CC(C)O,propan-2-ol,AALcwx,CC[n+]1ccn(C)c1,O=S(=O)([O-])C(F)(F)F,2,,,,1001,False,CC[n+]1ccn(C)c1.O=S(=O)([O-])C(F)(F)F,No changes
RTMou,308.15,101.0,958.87,Vercher et al. (2011b),Liquid,0.15,1-ethyl-3-methylimidazolium trifluoromethanesulfonate,,,CC[n+]1ccn(C)c1.O=S(=O)([O-])C(F)(F)F,1-ethyl-3-methylimidazolium trifluoromethanesulfonate,AAyCVz,CC(C)O,propan-2-ol,AALcwx,CC[n+]1ccn(C)c1,O=S(=O)([O-])C(F)(F)F,2,,,,1002,False,CC[n+]1ccn(C)c1.O=S(=O)([O-])C(F)(F)F,No changes
RTMou,308.15,101.0,1006.67,Vercher et al. (2011b),Liquid,0.2001,1-ethyl-3-methylimidazolium trifluoromethanesulfonate,,,CC[n+]1ccn(C)c1.O=S(=O)([O-])C(F)(F)F,1-ethyl-3-methylimidazolium trifluoromethanesulfonate,AAyCVz,CC(C)O,propan-2-ol,AALcwx,CC[n+]1ccn(C)c1,O=S(=O)([O-])C(F)(F)F,2,,,,1003,False,CC[n+]1ccn(C)c1.O=S(=O)([O-])C(F)(F)F,No changes
RTMou,308.15,101.0,1086.3,Vercher et al. (2011b),Liquid,0.2994,1-ethyl-3-methylimidazolium trifluoromethanesulfonate,,,CC[n+]1ccn(C)c1.O=S(=O)([O-])C(F)(F)F,1-ethyl-3-methylimidazolium trifluoromethanesulfonate,AAyCVz,CC(C)O,propan-2-ol,AALcwx,CC[n+]1ccn(C)c1,O=S(=O)([O-])C(F)(F)F,2,,,,1004,False,CC[n+]1ccn(C)c1.O=S(=O)([O-])C(F)(F)F,No changes
RTMou,308.15,101.0,1152.12,Vercher et al. (2011b),Liquid,0.4004,1-ethyl-3-methylimidazolium trifluoromethanesulfonate,,,CC[n+]1ccn(C)c1.O=S(=O)([O-])C(F)(F)F,1-ethyl-3-methylimidazolium trifluoromethanesulfonate,AAyCVz,CC(C)O,propan-2-ol,AALcwx,CC[n+]1ccn(C)c1,O=S(=O)([O-])C(F)(F)F,2,,,,1005,False,CC[n+]1ccn(C)c1.O=S(=O)([O-])C(F)(F)F,No changes
RTMou,308.15,101.0,1206.03,Vercher et al. (2011b),Liquid,0.4997,1-ethyl-3-methylimidazolium trifluoromethanesulfonate,,,CC[n+]1ccn(C)c1.O=S(=O)([O-])C(F)(F)F,1-ethyl-3-methylimidazolium trifluoromethanesulfonate,AAyCVz,CC(C)O,propan-2-ol,AALcwx,CC[n+]1ccn(C)c1,O=S(=O)([O-])C(F)(F)F,2,,,,1006,False,CC[n+]1ccn(C)c1.O=S(=O)([O-])C(F)(F)F,No changes
RTMou,308.15,101.0,1251.27,Vercher et al. (2011b),Liquid,0.5999,1-ethyl-3-methylimidazolium trifluoromethanesulfonate,,,CC[n+]1ccn(C)c1.O=S(=O)([O-])C(F)(F)F,1-ethyl-3-methylimidazolium trifluoromethanesulfonate,AAyCVz,CC(C)O,propan-2-ol,AALcwx,CC[n+]1ccn(C)c1,O=S(=O)([O-])C(F)(F)F,2,,,,1007,False,CC[n+]1ccn(C)c1.O=S(=O)([O-])C(F)(F)F,No changes