setid,Temperature (K),Pressure (kPa),Density (kg/m3),reference,phases,Mole fraction,Mole fraction of compound name,Weight fraction,Weight fraction of compound name,IL_SMILES,IL_name,IL_ID,Solvent_SMILES,Solvent_name,Solvent_ID,IL_cation_SMILES,IL_anion_SMILES,IL_component_number,Mole fraction of solvent,IL_MW,Solvent_MW,Record_ID,Contains_Metal,Standardized_IL_SMILES,Changes
RwmNg,303.15,100.0,1216.3,Lu et al. (2015),Liquid,0.3001,"2-ethyl-1,1,3,3-tetramethylguanidinium bis(trifluoromethanesulfonyl)imide",,,CC[NH+]=C(N(C)C)N(C)C.O=S(=O)([N-]S(=O)(=O)C(F)(F)F)C(F)(F)F,"2-ethyl-1,1,3,3-tetramethylguanidinium bis(trifluoromethanesulfonyl)imide",ABdfIc,CCO,ethanol,AAIsrh,CC[NH+]=C(N(C)C)N(C)C,O=S(=O)([N-]S(=O)(=O)C(F)(F)F)C(F)(F)F,2,,,,712,False,CC[NH+]=C(N(C)C)N(C)C.O=S(=O)([N-]S(=O)(=O)C(F)(F)F)C(F)(F)F,No changes
RwmNg,303.15,100.0,1268.9,Lu et al. (2015),Liquid,0.4005,"2-ethyl-1,1,3,3-tetramethylguanidinium bis(trifluoromethanesulfonyl)imide",,,CC[NH+]=C(N(C)C)N(C)C.O=S(=O)([N-]S(=O)(=O)C(F)(F)F)C(F)(F)F,"2-ethyl-1,1,3,3-tetramethylguanidinium bis(trifluoromethanesulfonyl)imide",ABdfIc,CCO,ethanol,AAIsrh,CC[NH+]=C(N(C)C)N(C)C,O=S(=O)([N-]S(=O)(=O)C(F)(F)F)C(F)(F)F,2,,,,713,False,CC[NH+]=C(N(C)C)N(C)C.O=S(=O)([N-]S(=O)(=O)C(F)(F)F)C(F)(F)F,No changes
RwmNg,303.15,100.0,1307.2,Lu et al. (2015),Liquid,0.5018,"2-ethyl-1,1,3,3-tetramethylguanidinium bis(trifluoromethanesulfonyl)imide",,,CC[NH+]=C(N(C)C)N(C)C.O=S(=O)([N-]S(=O)(=O)C(F)(F)F)C(F)(F)F,"2-ethyl-1,1,3,3-tetramethylguanidinium bis(trifluoromethanesulfonyl)imide",ABdfIc,CCO,ethanol,AAIsrh,CC[NH+]=C(N(C)C)N(C)C,O=S(=O)([N-]S(=O)(=O)C(F)(F)F)C(F)(F)F,2,,,,714,False,CC[NH+]=C(N(C)C)N(C)C.O=S(=O)([N-]S(=O)(=O)C(F)(F)F)C(F)(F)F,No changes
RwmNg,303.15,100.0,1335.7,Lu et al. (2015),Liquid,0.6011,"2-ethyl-1,1,3,3-tetramethylguanidinium bis(trifluoromethanesulfonyl)imide",,,CC[NH+]=C(N(C)C)N(C)C.O=S(=O)([N-]S(=O)(=O)C(F)(F)F)C(F)(F)F,"2-ethyl-1,1,3,3-tetramethylguanidinium bis(trifluoromethanesulfonyl)imide",ABdfIc,CCO,ethanol,AAIsrh,CC[NH+]=C(N(C)C)N(C)C,O=S(=O)([N-]S(=O)(=O)C(F)(F)F)C(F)(F)F,2,,,,715,False,CC[NH+]=C(N(C)C)N(C)C.O=S(=O)([N-]S(=O)(=O)C(F)(F)F)C(F)(F)F,No changes
RwmNg,303.15,100.0,1357.9,Lu et al. (2015),Liquid,0.6999,"2-ethyl-1,1,3,3-tetramethylguanidinium bis(trifluoromethanesulfonyl)imide",,,CC[NH+]=C(N(C)C)N(C)C.O=S(=O)([N-]S(=O)(=O)C(F)(F)F)C(F)(F)F,"2-ethyl-1,1,3,3-tetramethylguanidinium bis(trifluoromethanesulfonyl)imide",ABdfIc,CCO,ethanol,AAIsrh,CC[NH+]=C(N(C)C)N(C)C,O=S(=O)([N-]S(=O)(=O)C(F)(F)F)C(F)(F)F,2,,,,716,False,CC[NH+]=C(N(C)C)N(C)C.O=S(=O)([N-]S(=O)(=O)C(F)(F)F)C(F)(F)F,No changes
RwmNg,303.15,100.0,1377.0,Lu et al. (2015),Liquid,0.802,"2-ethyl-1,1,3,3-tetramethylguanidinium bis(trifluoromethanesulfonyl)imide",,,CC[NH+]=C(N(C)C)N(C)C.O=S(=O)([N-]S(=O)(=O)C(F)(F)F)C(F)(F)F,"2-ethyl-1,1,3,3-tetramethylguanidinium bis(trifluoromethanesulfonyl)imide",ABdfIc,CCO,ethanol,AAIsrh,CC[NH+]=C(N(C)C)N(C)C,O=S(=O)([N-]S(=O)(=O)C(F)(F)F)C(F)(F)F,2,,,,717,False,CC[NH+]=C(N(C)C)N(C)C.O=S(=O)([N-]S(=O)(=O)C(F)(F)F)C(F)(F)F,No changes
RwmNg,303.15,100.0,1390.9,Lu et al. (2015),Liquid,0.892,"2-ethyl-1,1,3,3-tetramethylguanidinium bis(trifluoromethanesulfonyl)imide",,,CC[NH+]=C(N(C)C)N(C)C.O=S(=O)([N-]S(=O)(=O)C(F)(F)F)C(F)(F)F,"2-ethyl-1,1,3,3-tetramethylguanidinium bis(trifluoromethanesulfonyl)imide",ABdfIc,CCO,ethanol,AAIsrh,CC[NH+]=C(N(C)C)N(C)C,O=S(=O)([N-]S(=O)(=O)C(F)(F)F)C(F)(F)F,2,,,,718,False,CC[NH+]=C(N(C)C)N(C)C.O=S(=O)([N-]S(=O)(=O)C(F)(F)F)C(F)(F)F,No changes
RwmNg,303.15,100.0,1405.0,Lu et al. (2015),Liquid,1.0,"2-ethyl-1,1,3,3-tetramethylguanidinium bis(trifluoromethanesulfonyl)imide",,,CC[NH+]=C(N(C)C)N(C)C.O=S(=O)([N-]S(=O)(=O)C(F)(F)F)C(F)(F)F,"2-ethyl-1,1,3,3-tetramethylguanidinium bis(trifluoromethanesulfonyl)imide",ABdfIc,CCO,ethanol,AAIsrh,CC[NH+]=C(N(C)C)N(C)C,O=S(=O)([N-]S(=O)(=O)C(F)(F)F)C(F)(F)F,2,,,,719,False,CC[NH+]=C(N(C)C)N(C)C.O=S(=O)([N-]S(=O)(=O)C(F)(F)F)C(F)(F)F,No changes
RwmNg,308.15,100.0,776.52,Lu et al. (2015),Liquid,0.0,"2-ethyl-1,1,3,3-tetramethylguanidinium bis(trifluoromethanesulfonyl)imide",,,CC[NH+]=C(N(C)C)N(C)C.O=S(=O)([N-]S(=O)(=O)C(F)(F)F)C(F)(F)F,"2-ethyl-1,1,3,3-tetramethylguanidinium bis(trifluoromethanesulfonyl)imide",ABdfIc,CCO,ethanol,AAIsrh,CC[NH+]=C(N(C)C)N(C)C,O=S(=O)([N-]S(=O)(=O)C(F)(F)F)C(F)(F)F,2,,,,720,False,CC[NH+]=C(N(C)C)N(C)C.O=S(=O)([N-]S(=O)(=O)C(F)(F)F)C(F)(F)F,No changes
RwmNg,308.15,100.0,1008.82,Lu et al. (2015),Liquid,0.1006,"2-ethyl-1,1,3,3-tetramethylguanidinium bis(trifluoromethanesulfonyl)imide",,,CC[NH+]=C(N(C)C)N(C)C.O=S(=O)([N-]S(=O)(=O)C(F)(F)F)C(F)(F)F,"2-ethyl-1,1,3,3-tetramethylguanidinium bis(trifluoromethanesulfonyl)imide",ABdfIc,CCO,ethanol,AAIsrh,CC[NH+]=C(N(C)C)N(C)C,O=S(=O)([N-]S(=O)(=O)C(F)(F)F)C(F)(F)F,2,,,,721,False,CC[NH+]=C(N(C)C)N(C)C.O=S(=O)([N-]S(=O)(=O)C(F)(F)F)C(F)(F)F,No changes
RwmNg,308.15,100.0,1133.65,Lu et al. (2015),Liquid,0.2004,"2-ethyl-1,1,3,3-tetramethylguanidinium bis(trifluoromethanesulfonyl)imide",,,CC[NH+]=C(N(C)C)N(C)C.O=S(=O)([N-]S(=O)(=O)C(F)(F)F)C(F)(F)F,"2-ethyl-1,1,3,3-tetramethylguanidinium bis(trifluoromethanesulfonyl)imide",ABdfIc,CCO,ethanol,AAIsrh,CC[NH+]=C(N(C)C)N(C)C,O=S(=O)([N-]S(=O)(=O)C(F)(F)F)C(F)(F)F,2,,,,722,False,CC[NH+]=C(N(C)C)N(C)C.O=S(=O)([N-]S(=O)(=O)C(F)(F)F)C(F)(F)F,No changes
RwmNg,308.15,100.0,1211.5,Lu et al. (2015),Liquid,0.3001,"2-ethyl-1,1,3,3-tetramethylguanidinium bis(trifluoromethanesulfonyl)imide",,,CC[NH+]=C(N(C)C)N(C)C.O=S(=O)([N-]S(=O)(=O)C(F)(F)F)C(F)(F)F,"2-ethyl-1,1,3,3-tetramethylguanidinium bis(trifluoromethanesulfonyl)imide",ABdfIc,CCO,ethanol,AAIsrh,CC[NH+]=C(N(C)C)N(C)C,O=S(=O)([N-]S(=O)(=O)C(F)(F)F)C(F)(F)F,2,,,,723,False,CC[NH+]=C(N(C)C)N(C)C.O=S(=O)([N-]S(=O)(=O)C(F)(F)F)C(F)(F)F,No changes
RwmNg,308.15,100.0,1264.1,Lu et al. (2015),Liquid,0.4005,"2-ethyl-1,1,3,3-tetramethylguanidinium bis(trifluoromethanesulfonyl)imide",,,CC[NH+]=C(N(C)C)N(C)C.O=S(=O)([N-]S(=O)(=O)C(F)(F)F)C(F)(F)F,"2-ethyl-1,1,3,3-tetramethylguanidinium bis(trifluoromethanesulfonyl)imide",ABdfIc,CCO,ethanol,AAIsrh,CC[NH+]=C(N(C)C)N(C)C,O=S(=O)([N-]S(=O)(=O)C(F)(F)F)C(F)(F)F,2,,,,724,False,CC[NH+]=C(N(C)C)N(C)C.O=S(=O)([N-]S(=O)(=O)C(F)(F)F)C(F)(F)F,No changes
RwmNg,308.15,100.0,1302.4,Lu et al. (2015),Liquid,0.5018,"2-ethyl-1,1,3,3-tetramethylguanidinium bis(trifluoromethanesulfonyl)imide",,,CC[NH+]=C(N(C)C)N(C)C.O=S(=O)([N-]S(=O)(=O)C(F)(F)F)C(F)(F)F,"2-ethyl-1,1,3,3-tetramethylguanidinium bis(trifluoromethanesulfonyl)imide",ABdfIc,CCO,ethanol,AAIsrh,CC[NH+]=C(N(C)C)N(C)C,O=S(=O)([N-]S(=O)(=O)C(F)(F)F)C(F)(F)F,2,,,,725,False,CC[NH+]=C(N(C)C)N(C)C.O=S(=O)([N-]S(=O)(=O)C(F)(F)F)C(F)(F)F,No changes
RwmNg,308.15,100.0,1330.8,Lu et al. (2015),Liquid,0.6011,"2-ethyl-1,1,3,3-tetramethylguanidinium bis(trifluoromethanesulfonyl)imide",,,CC[NH+]=C(N(C)C)N(C)C.O=S(=O)([N-]S(=O)(=O)C(F)(F)F)C(F)(F)F,"2-ethyl-1,1,3,3-tetramethylguanidinium bis(trifluoromethanesulfonyl)imide",ABdfIc,CCO,ethanol,AAIsrh,CC[NH+]=C(N(C)C)N(C)C,O=S(=O)([N-]S(=O)(=O)C(F)(F)F)C(F)(F)F,2,,,,726,False,CC[NH+]=C(N(C)C)N(C)C.O=S(=O)([N-]S(=O)(=O)C(F)(F)F)C(F)(F)F,No changes
RwmNg,308.15,100.0,1353.1,Lu et al. (2015),Liquid,0.6999,"2-ethyl-1,1,3,3-tetramethylguanidinium bis(trifluoromethanesulfonyl)imide",,,CC[NH+]=C(N(C)C)N(C)C.O=S(=O)([N-]S(=O)(=O)C(F)(F)F)C(F)(F)F,"2-ethyl-1,1,3,3-tetramethylguanidinium bis(trifluoromethanesulfonyl)imide",ABdfIc,CCO,ethanol,AAIsrh,CC[NH+]=C(N(C)C)N(C)C,O=S(=O)([N-]S(=O)(=O)C(F)(F)F)C(F)(F)F,2,,,,727,False,CC[NH+]=C(N(C)C)N(C)C.O=S(=O)([N-]S(=O)(=O)C(F)(F)F)C(F)(F)F,No changes
RwmNg,308.15,100.0,1372.1,Lu et al. (2015),Liquid,0.802,"2-ethyl-1,1,3,3-tetramethylguanidinium bis(trifluoromethanesulfonyl)imide",,,CC[NH+]=C(N(C)C)N(C)C.O=S(=O)([N-]S(=O)(=O)C(F)(F)F)C(F)(F)F,"2-ethyl-1,1,3,3-tetramethylguanidinium bis(trifluoromethanesulfonyl)imide",ABdfIc,CCO,ethanol,AAIsrh,CC[NH+]=C(N(C)C)N(C)C,O=S(=O)([N-]S(=O)(=O)C(F)(F)F)C(F)(F)F,2,,,,728,False,CC[NH+]=C(N(C)C)N(C)C.O=S(=O)([N-]S(=O)(=O)C(F)(F)F)C(F)(F)F,No changes
RwmNg,308.15,100.0,1386.1,Lu et al. (2015),Liquid,0.892,"2-ethyl-1,1,3,3-tetramethylguanidinium bis(trifluoromethanesulfonyl)imide",,,CC[NH+]=C(N(C)C)N(C)C.O=S(=O)([N-]S(=O)(=O)C(F)(F)F)C(F)(F)F,"2-ethyl-1,1,3,3-tetramethylguanidinium bis(trifluoromethanesulfonyl)imide",ABdfIc,CCO,ethanol,AAIsrh,CC[NH+]=C(N(C)C)N(C)C,O=S(=O)([N-]S(=O)(=O)C(F)(F)F)C(F)(F)F,2,,,,729,False,CC[NH+]=C(N(C)C)N(C)C.O=S(=O)([N-]S(=O)(=O)C(F)(F)F)C(F)(F)F,No changes
RwmNg,308.15,100.0,1400.0,Lu et al. (2015),Liquid,1.0,"2-ethyl-1,1,3,3-tetramethylguanidinium bis(trifluoromethanesulfonyl)imide",,,CC[NH+]=C(N(C)C)N(C)C.O=S(=O)([N-]S(=O)(=O)C(F)(F)F)C(F)(F)F,"2-ethyl-1,1,3,3-tetramethylguanidinium bis(trifluoromethanesulfonyl)imide",ABdfIc,CCO,ethanol,AAIsrh,CC[NH+]=C(N(C)C)N(C)C,O=S(=O)([N-]S(=O)(=O)C(F)(F)F)C(F)(F)F,2,,,,730,False,CC[NH+]=C(N(C)C)N(C)C.O=S(=O)([N-]S(=O)(=O)C(F)(F)F)C(F)(F)F,No changes
RwmNg,313.15,100.0,772.12,Lu et al. (2015),Liquid,0.0,"2-ethyl-1,1,3,3-tetramethylguanidinium bis(trifluoromethanesulfonyl)imide",,,CC[NH+]=C(N(C)C)N(C)C.O=S(=O)([N-]S(=O)(=O)C(F)(F)F)C(F)(F)F,"2-ethyl-1,1,3,3-tetramethylguanidinium bis(trifluoromethanesulfonyl)imide",ABdfIc,CCO,ethanol,AAIsrh,CC[NH+]=C(N(C)C)N(C)C,O=S(=O)([N-]S(=O)(=O)C(F)(F)F)C(F)(F)F,2,,,,731,False,CC[NH+]=C(N(C)C)N(C)C.O=S(=O)([N-]S(=O)(=O)C(F)(F)F)C(F)(F)F,No changes
RwmNg,313.15,100.0,1004.07,Lu et al. (2015),Liquid,0.1006,"2-ethyl-1,1,3,3-tetramethylguanidinium bis(trifluoromethanesulfonyl)imide",,,CC[NH+]=C(N(C)C)N(C)C.O=S(=O)([N-]S(=O)(=O)C(F)(F)F)C(F)(F)F,"2-ethyl-1,1,3,3-tetramethylguanidinium bis(trifluoromethanesulfonyl)imide",ABdfIc,CCO,ethanol,AAIsrh,CC[NH+]=C(N(C)C)N(C)C,O=S(=O)([N-]S(=O)(=O)C(F)(F)F)C(F)(F)F,2,,,,732,False,CC[NH+]=C(N(C)C)N(C)C.O=S(=O)([N-]S(=O)(=O)C(F)(F)F)C(F)(F)F,No changes
RwmNg,313.15,100.0,1128.85,Lu et al. (2015),Liquid,0.2004,"2-ethyl-1,1,3,3-tetramethylguanidinium bis(trifluoromethanesulfonyl)imide",,,CC[NH+]=C(N(C)C)N(C)C.O=S(=O)([N-]S(=O)(=O)C(F)(F)F)C(F)(F)F,"2-ethyl-1,1,3,3-tetramethylguanidinium bis(trifluoromethanesulfonyl)imide",ABdfIc,CCO,ethanol,AAIsrh,CC[NH+]=C(N(C)C)N(C)C,O=S(=O)([N-]S(=O)(=O)C(F)(F)F)C(F)(F)F,2,,,,733,False,CC[NH+]=C(N(C)C)N(C)C.O=S(=O)([N-]S(=O)(=O)C(F)(F)F)C(F)(F)F,No changes
RwmNg,313.15,100.0,1206.7,Lu et al. (2015),Liquid,0.3001,"2-ethyl-1,1,3,3-tetramethylguanidinium bis(trifluoromethanesulfonyl)imide",,,CC[NH+]=C(N(C)C)N(C)C.O=S(=O)([N-]S(=O)(=O)C(F)(F)F)C(F)(F)F,"2-ethyl-1,1,3,3-tetramethylguanidinium bis(trifluoromethanesulfonyl)imide",ABdfIc,CCO,ethanol,AAIsrh,CC[NH+]=C(N(C)C)N(C)C,O=S(=O)([N-]S(=O)(=O)C(F)(F)F)C(F)(F)F,2,,,,734,False,CC[NH+]=C(N(C)C)N(C)C.O=S(=O)([N-]S(=O)(=O)C(F)(F)F)C(F)(F)F,No changes
RwmNg,313.15,100.0,1259.2,Lu et al. (2015),Liquid,0.4005,"2-ethyl-1,1,3,3-tetramethylguanidinium bis(trifluoromethanesulfonyl)imide",,,CC[NH+]=C(N(C)C)N(C)C.O=S(=O)([N-]S(=O)(=O)C(F)(F)F)C(F)(F)F,"2-ethyl-1,1,3,3-tetramethylguanidinium bis(trifluoromethanesulfonyl)imide",ABdfIc,CCO,ethanol,AAIsrh,CC[NH+]=C(N(C)C)N(C)C,O=S(=O)([N-]S(=O)(=O)C(F)(F)F)C(F)(F)F,2,,,,735,False,CC[NH+]=C(N(C)C)N(C)C.O=S(=O)([N-]S(=O)(=O)C(F)(F)F)C(F)(F)F,No changes
RwmNg,313.15,100.0,1297.5,Lu et al. (2015),Liquid,0.5018,"2-ethyl-1,1,3,3-tetramethylguanidinium bis(trifluoromethanesulfonyl)imide",,,CC[NH+]=C(N(C)C)N(C)C.O=S(=O)([N-]S(=O)(=O)C(F)(F)F)C(F)(F)F,"2-ethyl-1,1,3,3-tetramethylguanidinium bis(trifluoromethanesulfonyl)imide",ABdfIc,CCO,ethanol,AAIsrh,CC[NH+]=C(N(C)C)N(C)C,O=S(=O)([N-]S(=O)(=O)C(F)(F)F)C(F)(F)F,2,,,,736,False,CC[NH+]=C(N(C)C)N(C)C.O=S(=O)([N-]S(=O)(=O)C(F)(F)F)C(F)(F)F,No changes
RwmNg,313.15,100.0,1326.0,Lu et al. (2015),Liquid,0.6011,"2-ethyl-1,1,3,3-tetramethylguanidinium bis(trifluoromethanesulfonyl)imide",,,CC[NH+]=C(N(C)C)N(C)C.O=S(=O)([N-]S(=O)(=O)C(F)(F)F)C(F)(F)F,"2-ethyl-1,1,3,3-tetramethylguanidinium bis(trifluoromethanesulfonyl)imide",ABdfIc,CCO,ethanol,AAIsrh,CC[NH+]=C(N(C)C)N(C)C,O=S(=O)([N-]S(=O)(=O)C(F)(F)F)C(F)(F)F,2,,,,737,False,CC[NH+]=C(N(C)C)N(C)C.O=S(=O)([N-]S(=O)(=O)C(F)(F)F)C(F)(F)F,No changes
RwmNg,313.15,100.0,1348.2,Lu et al. (2015),Liquid,0.6999,"2-ethyl-1,1,3,3-tetramethylguanidinium bis(trifluoromethanesulfonyl)imide",,,CC[NH+]=C(N(C)C)N(C)C.O=S(=O)([N-]S(=O)(=O)C(F)(F)F)C(F)(F)F,"2-ethyl-1,1,3,3-tetramethylguanidinium bis(trifluoromethanesulfonyl)imide",ABdfIc,CCO,ethanol,AAIsrh,CC[NH+]=C(N(C)C)N(C)C,O=S(=O)([N-]S(=O)(=O)C(F)(F)F)C(F)(F)F,2,,,,738,False,CC[NH+]=C(N(C)C)N(C)C.O=S(=O)([N-]S(=O)(=O)C(F)(F)F)C(F)(F)F,No changes
RwmNg,313.15,100.0,1367.3,Lu et al. (2015),Liquid,0.802,"2-ethyl-1,1,3,3-tetramethylguanidinium bis(trifluoromethanesulfonyl)imide",,,CC[NH+]=C(N(C)C)N(C)C.O=S(=O)([N-]S(=O)(=O)C(F)(F)F)C(F)(F)F,"2-ethyl-1,1,3,3-tetramethylguanidinium bis(trifluoromethanesulfonyl)imide",ABdfIc,CCO,ethanol,AAIsrh,CC[NH+]=C(N(C)C)N(C)C,O=S(=O)([N-]S(=O)(=O)C(F)(F)F)C(F)(F)F,2,,,,739,False,CC[NH+]=C(N(C)C)N(C)C.O=S(=O)([N-]S(=O)(=O)C(F)(F)F)C(F)(F)F,No changes
RwmNg,313.15,100.0,1381.3,Lu et al. (2015),Liquid,0.892,"2-ethyl-1,1,3,3-tetramethylguanidinium bis(trifluoromethanesulfonyl)imide",,,CC[NH+]=C(N(C)C)N(C)C.O=S(=O)([N-]S(=O)(=O)C(F)(F)F)C(F)(F)F,"2-ethyl-1,1,3,3-tetramethylguanidinium bis(trifluoromethanesulfonyl)imide",ABdfIc,CCO,ethanol,AAIsrh,CC[NH+]=C(N(C)C)N(C)C,O=S(=O)([N-]S(=O)(=O)C(F)(F)F)C(F)(F)F,2,,,,740,False,CC[NH+]=C(N(C)C)N(C)C.O=S(=O)([N-]S(=O)(=O)C(F)(F)F)C(F)(F)F,No changes
RwmNg,313.15,100.0,1396.0,Lu et al. (2015),Liquid,1.0,"2-ethyl-1,1,3,3-tetramethylguanidinium bis(trifluoromethanesulfonyl)imide",,,CC[NH+]=C(N(C)C)N(C)C.O=S(=O)([N-]S(=O)(=O)C(F)(F)F)C(F)(F)F,"2-ethyl-1,1,3,3-tetramethylguanidinium bis(trifluoromethanesulfonyl)imide",ABdfIc,CCO,ethanol,AAIsrh,CC[NH+]=C(N(C)C)N(C)C,O=S(=O)([N-]S(=O)(=O)C(F)(F)F)C(F)(F)F,2,,,,741,False,CC[NH+]=C(N(C)C)N(C)C.O=S(=O)([N-]S(=O)(=O)C(F)(F)F)C(F)(F)F,No changes
RwmNg,318.15,100.0,767.71,Lu et al. (2015),Liquid,0.0,"2-ethyl-1,1,3,3-tetramethylguanidinium bis(trifluoromethanesulfonyl)imide",,,CC[NH+]=C(N(C)C)N(C)C.O=S(=O)([N-]S(=O)(=O)C(F)(F)F)C(F)(F)F,"2-ethyl-1,1,3,3-tetramethylguanidinium bis(trifluoromethanesulfonyl)imide",ABdfIc,CCO,ethanol,AAIsrh,CC[NH+]=C(N(C)C)N(C)C,O=S(=O)([N-]S(=O)(=O)C(F)(F)F)C(F)(F)F,2,,,,742,False,CC[NH+]=C(N(C)C)N(C)C.O=S(=O)([N-]S(=O)(=O)C(F)(F)F)C(F)(F)F,No changes
RwmNg,318.15,100.0,999.26,Lu et al. (2015),Liquid,0.1006,"2-ethyl-1,1,3,3-tetramethylguanidinium bis(trifluoromethanesulfonyl)imide",,,CC[NH+]=C(N(C)C)N(C)C.O=S(=O)([N-]S(=O)(=O)C(F)(F)F)C(F)(F)F,"2-ethyl-1,1,3,3-tetramethylguanidinium bis(trifluoromethanesulfonyl)imide",ABdfIc,CCO,ethanol,AAIsrh,CC[NH+]=C(N(C)C)N(C)C,O=S(=O)([N-]S(=O)(=O)C(F)(F)F)C(F)(F)F,2,,,,743,False,CC[NH+]=C(N(C)C)N(C)C.O=S(=O)([N-]S(=O)(=O)C(F)(F)F)C(F)(F)F,No changes
RwmNg,318.15,100.0,1124.03,Lu et al. (2015),Liquid,0.2004,"2-ethyl-1,1,3,3-tetramethylguanidinium bis(trifluoromethanesulfonyl)imide",,,CC[NH+]=C(N(C)C)N(C)C.O=S(=O)([N-]S(=O)(=O)C(F)(F)F)C(F)(F)F,"2-ethyl-1,1,3,3-tetramethylguanidinium bis(trifluoromethanesulfonyl)imide",ABdfIc,CCO,ethanol,AAIsrh,CC[NH+]=C(N(C)C)N(C)C,O=S(=O)([N-]S(=O)(=O)C(F)(F)F)C(F)(F)F,2,,,,744,False,CC[NH+]=C(N(C)C)N(C)C.O=S(=O)([N-]S(=O)(=O)C(F)(F)F)C(F)(F)F,No changes
RwmNg,318.15,100.0,1201.8,Lu et al. (2015),Liquid,0.3001,"2-ethyl-1,1,3,3-tetramethylguanidinium bis(trifluoromethanesulfonyl)imide",,,CC[NH+]=C(N(C)C)N(C)C.O=S(=O)([N-]S(=O)(=O)C(F)(F)F)C(F)(F)F,"2-ethyl-1,1,3,3-tetramethylguanidinium bis(trifluoromethanesulfonyl)imide",ABdfIc,CCO,ethanol,AAIsrh,CC[NH+]=C(N(C)C)N(C)C,O=S(=O)([N-]S(=O)(=O)C(F)(F)F)C(F)(F)F,2,,,,745,False,CC[NH+]=C(N(C)C)N(C)C.O=S(=O)([N-]S(=O)(=O)C(F)(F)F)C(F)(F)F,No changes
RwmNg,318.15,100.0,1254.4,Lu et al. (2015),Liquid,0.4005,"2-ethyl-1,1,3,3-tetramethylguanidinium bis(trifluoromethanesulfonyl)imide",,,CC[NH+]=C(N(C)C)N(C)C.O=S(=O)([N-]S(=O)(=O)C(F)(F)F)C(F)(F)F,"2-ethyl-1,1,3,3-tetramethylguanidinium bis(trifluoromethanesulfonyl)imide",ABdfIc,CCO,ethanol,AAIsrh,CC[NH+]=C(N(C)C)N(C)C,O=S(=O)([N-]S(=O)(=O)C(F)(F)F)C(F)(F)F,2,,,,746,False,CC[NH+]=C(N(C)C)N(C)C.O=S(=O)([N-]S(=O)(=O)C(F)(F)F)C(F)(F)F,No changes
RwmNg,318.15,100.0,1292.6,Lu et al. (2015),Liquid,0.5018,"2-ethyl-1,1,3,3-tetramethylguanidinium bis(trifluoromethanesulfonyl)imide",,,CC[NH+]=C(N(C)C)N(C)C.O=S(=O)([N-]S(=O)(=O)C(F)(F)F)C(F)(F)F,"2-ethyl-1,1,3,3-tetramethylguanidinium bis(trifluoromethanesulfonyl)imide",ABdfIc,CCO,ethanol,AAIsrh,CC[NH+]=C(N(C)C)N(C)C,O=S(=O)([N-]S(=O)(=O)C(F)(F)F)C(F)(F)F,2,,,,747,False,CC[NH+]=C(N(C)C)N(C)C.O=S(=O)([N-]S(=O)(=O)C(F)(F)F)C(F)(F)F,No changes
RwmNg,318.15,100.0,1321.1,Lu et al. (2015),Liquid,0.6011,"2-ethyl-1,1,3,3-tetramethylguanidinium bis(trifluoromethanesulfonyl)imide",,,CC[NH+]=C(N(C)C)N(C)C.O=S(=O)([N-]S(=O)(=O)C(F)(F)F)C(F)(F)F,"2-ethyl-1,1,3,3-tetramethylguanidinium bis(trifluoromethanesulfonyl)imide",ABdfIc,CCO,ethanol,AAIsrh,CC[NH+]=C(N(C)C)N(C)C,O=S(=O)([N-]S(=O)(=O)C(F)(F)F)C(F)(F)F,2,,,,748,False,CC[NH+]=C(N(C)C)N(C)C.O=S(=O)([N-]S(=O)(=O)C(F)(F)F)C(F)(F)F,No changes
RwmNg,318.15,100.0,1343.4,Lu et al. (2015),Liquid,0.6999,"2-ethyl-1,1,3,3-tetramethylguanidinium bis(trifluoromethanesulfonyl)imide",,,CC[NH+]=C(N(C)C)N(C)C.O=S(=O)([N-]S(=O)(=O)C(F)(F)F)C(F)(F)F,"2-ethyl-1,1,3,3-tetramethylguanidinium bis(trifluoromethanesulfonyl)imide",ABdfIc,CCO,ethanol,AAIsrh,CC[NH+]=C(N(C)C)N(C)C,O=S(=O)([N-]S(=O)(=O)C(F)(F)F)C(F)(F)F,2,,,,749,False,CC[NH+]=C(N(C)C)N(C)C.O=S(=O)([N-]S(=O)(=O)C(F)(F)F)C(F)(F)F,No changes
RwmNg,318.15,100.0,1362.5,Lu et al. (2015),Liquid,0.802,"2-ethyl-1,1,3,3-tetramethylguanidinium bis(trifluoromethanesulfonyl)imide",,,CC[NH+]=C(N(C)C)N(C)C.O=S(=O)([N-]S(=O)(=O)C(F)(F)F)C(F)(F)F,"2-ethyl-1,1,3,3-tetramethylguanidinium bis(trifluoromethanesulfonyl)imide",ABdfIc,CCO,ethanol,AAIsrh,CC[NH+]=C(N(C)C)N(C)C,O=S(=O)([N-]S(=O)(=O)C(F)(F)F)C(F)(F)F,2,,,,750,False,CC[NH+]=C(N(C)C)N(C)C.O=S(=O)([N-]S(=O)(=O)C(F)(F)F)C(F)(F)F,No changes
RwmNg,318.15,100.0,1376.5,Lu et al. (2015),Liquid,0.892,"2-ethyl-1,1,3,3-tetramethylguanidinium bis(trifluoromethanesulfonyl)imide",,,CC[NH+]=C(N(C)C)N(C)C.O=S(=O)([N-]S(=O)(=O)C(F)(F)F)C(F)(F)F,"2-ethyl-1,1,3,3-tetramethylguanidinium bis(trifluoromethanesulfonyl)imide",ABdfIc,CCO,ethanol,AAIsrh,CC[NH+]=C(N(C)C)N(C)C,O=S(=O)([N-]S(=O)(=O)C(F)(F)F)C(F)(F)F,2,,,,751,False,CC[NH+]=C(N(C)C)N(C)C.O=S(=O)([N-]S(=O)(=O)C(F)(F)F)C(F)(F)F,No changes
RwmNg,318.15,100.0,1391.0,Lu et al. (2015),Liquid,1.0,"2-ethyl-1,1,3,3-tetramethylguanidinium bis(trifluoromethanesulfonyl)imide",,,CC[NH+]=C(N(C)C)N(C)C.O=S(=O)([N-]S(=O)(=O)C(F)(F)F)C(F)(F)F,"2-ethyl-1,1,3,3-tetramethylguanidinium bis(trifluoromethanesulfonyl)imide",ABdfIc,CCO,ethanol,AAIsrh,CC[NH+]=C(N(C)C)N(C)C,O=S(=O)([N-]S(=O)(=O)C(F)(F)F)C(F)(F)F,2,,,,752,False,CC[NH+]=C(N(C)C)N(C)C.O=S(=O)([N-]S(=O)(=O)C(F)(F)F)C(F)(F)F,No changes
RwmNg,323.15,100.0,763.26,Lu et al. (2015),Liquid,0.0,"2-ethyl-1,1,3,3-tetramethylguanidinium bis(trifluoromethanesulfonyl)imide",,,CC[NH+]=C(N(C)C)N(C)C.O=S(=O)([N-]S(=O)(=O)C(F)(F)F)C(F)(F)F,"2-ethyl-1,1,3,3-tetramethylguanidinium bis(trifluoromethanesulfonyl)imide",ABdfIc,CCO,ethanol,AAIsrh,CC[NH+]=C(N(C)C)N(C)C,O=S(=O)([N-]S(=O)(=O)C(F)(F)F)C(F)(F)F,2,,,,753,False,CC[NH+]=C(N(C)C)N(C)C.O=S(=O)([N-]S(=O)(=O)C(F)(F)F)C(F)(F)F,No changes
RwmNg,323.15,100.0,994.44,Lu et al. (2015),Liquid,0.1006,"2-ethyl-1,1,3,3-tetramethylguanidinium bis(trifluoromethanesulfonyl)imide",,,CC[NH+]=C(N(C)C)N(C)C.O=S(=O)([N-]S(=O)(=O)C(F)(F)F)C(F)(F)F,"2-ethyl-1,1,3,3-tetramethylguanidinium bis(trifluoromethanesulfonyl)imide",ABdfIc,CCO,ethanol,AAIsrh,CC[NH+]=C(N(C)C)N(C)C,O=S(=O)([N-]S(=O)(=O)C(F)(F)F)C(F)(F)F,2,,,,754,False,CC[NH+]=C(N(C)C)N(C)C.O=S(=O)([N-]S(=O)(=O)C(F)(F)F)C(F)(F)F,No changes
RwmNg,323.15,100.0,1119.21,Lu et al. (2015),Liquid,0.2004,"2-ethyl-1,1,3,3-tetramethylguanidinium bis(trifluoromethanesulfonyl)imide",,,CC[NH+]=C(N(C)C)N(C)C.O=S(=O)([N-]S(=O)(=O)C(F)(F)F)C(F)(F)F,"2-ethyl-1,1,3,3-tetramethylguanidinium bis(trifluoromethanesulfonyl)imide",ABdfIc,CCO,ethanol,AAIsrh,CC[NH+]=C(N(C)C)N(C)C,O=S(=O)([N-]S(=O)(=O)C(F)(F)F)C(F)(F)F,2,,,,755,False,CC[NH+]=C(N(C)C)N(C)C.O=S(=O)([N-]S(=O)(=O)C(F)(F)F)C(F)(F)F,No changes