setid,Temperature (K),Pressure (kPa),Density (kg/m3),reference,phases,Mole fraction,Mole fraction of compound name,Weight fraction,Weight fraction of compound name,IL_SMILES,IL_name,IL_ID,Solvent_SMILES,Solvent_name,Solvent_ID,IL_cation_SMILES,IL_anion_SMILES,IL_component_number,Mole fraction of solvent,IL_MW,Solvent_MW,Record_ID,Contains_Metal,Standardized_IL_SMILES,Changes
YLObv,323.15,100.0,1094.0,Krolikowska et al. (2023),Liquid,0.4031,"1,3-dimethylimidazolium dimethyl phosphate",,,Cn1cc[n+](C)c1.COP(=O)([O-])OC,"1,3-dimethylimidazolium dimethyl phosphate",AAqlaB,CCO,ethanol,AAIsrh,Cn1cc[n+](C)c1,COP(=O)([O-])OC,2,,,,593,False,Cn1cc[n+](C)c1.COP(=O)([O-])OC,No changes
YLObv,323.15,100.0,1129.0,Krolikowska et al. (2023),Liquid,0.4996,"1,3-dimethylimidazolium dimethyl phosphate",,,Cn1cc[n+](C)c1.COP(=O)([O-])OC,"1,3-dimethylimidazolium dimethyl phosphate",AAqlaB,CCO,ethanol,AAIsrh,Cn1cc[n+](C)c1,COP(=O)([O-])OC,2,,,,594,False,Cn1cc[n+](C)c1.COP(=O)([O-])OC,No changes
YLObv,323.15,100.0,1161.0,Krolikowska et al. (2023),Liquid,0.6043,"1,3-dimethylimidazolium dimethyl phosphate",,,Cn1cc[n+](C)c1.COP(=O)([O-])OC,"1,3-dimethylimidazolium dimethyl phosphate",AAqlaB,CCO,ethanol,AAIsrh,Cn1cc[n+](C)c1,COP(=O)([O-])OC,2,,,,595,False,Cn1cc[n+](C)c1.COP(=O)([O-])OC,No changes
YLObv,323.15,100.0,1185.0,Krolikowska et al. (2023),Liquid,0.7009,"1,3-dimethylimidazolium dimethyl phosphate",,,Cn1cc[n+](C)c1.COP(=O)([O-])OC,"1,3-dimethylimidazolium dimethyl phosphate",AAqlaB,CCO,ethanol,AAIsrh,Cn1cc[n+](C)c1,COP(=O)([O-])OC,2,,,,596,False,Cn1cc[n+](C)c1.COP(=O)([O-])OC,No changes
YLObv,323.15,100.0,1206.0,Krolikowska et al. (2023),Liquid,0.797,"1,3-dimethylimidazolium dimethyl phosphate",,,Cn1cc[n+](C)c1.COP(=O)([O-])OC,"1,3-dimethylimidazolium dimethyl phosphate",AAqlaB,CCO,ethanol,AAIsrh,Cn1cc[n+](C)c1,COP(=O)([O-])OC,2,,,,597,False,Cn1cc[n+](C)c1.COP(=O)([O-])OC,No changes
YLObv,323.15,100.0,1223.0,Krolikowska et al. (2023),Liquid,0.8995,"1,3-dimethylimidazolium dimethyl phosphate",,,Cn1cc[n+](C)c1.COP(=O)([O-])OC,"1,3-dimethylimidazolium dimethyl phosphate",AAqlaB,CCO,ethanol,AAIsrh,Cn1cc[n+](C)c1,COP(=O)([O-])OC,2,,,,598,False,Cn1cc[n+](C)c1.COP(=O)([O-])OC,No changes
YLObv,323.15,100.0,1240.0,Krolikowska et al. (2023),Liquid,1.0,"1,3-dimethylimidazolium dimethyl phosphate",,,Cn1cc[n+](C)c1.COP(=O)([O-])OC,"1,3-dimethylimidazolium dimethyl phosphate",AAqlaB,CCO,ethanol,AAIsrh,Cn1cc[n+](C)c1,COP(=O)([O-])OC,2,,,,599,False,Cn1cc[n+](C)c1.COP(=O)([O-])OC,No changes
YLObv,328.15,100.0,759.0,Krolikowska et al. (2023),Liquid,0.0,"1,3-dimethylimidazolium dimethyl phosphate",,,Cn1cc[n+](C)c1.COP(=O)([O-])OC,"1,3-dimethylimidazolium dimethyl phosphate",AAqlaB,CCO,ethanol,AAIsrh,Cn1cc[n+](C)c1,COP(=O)([O-])OC,2,,,,600,False,Cn1cc[n+](C)c1.COP(=O)([O-])OC,No changes
YLObv,328.15,100.0,791.0,Krolikowska et al. (2023),Liquid,0.0201,"1,3-dimethylimidazolium dimethyl phosphate",,,Cn1cc[n+](C)c1.COP(=O)([O-])OC,"1,3-dimethylimidazolium dimethyl phosphate",AAqlaB,CCO,ethanol,AAIsrh,Cn1cc[n+](C)c1,COP(=O)([O-])OC,2,,,,601,False,Cn1cc[n+](C)c1.COP(=O)([O-])OC,No changes
YLObv,328.15,100.0,819.0,Krolikowska et al. (2023),Liquid,0.0402,"1,3-dimethylimidazolium dimethyl phosphate",,,Cn1cc[n+](C)c1.COP(=O)([O-])OC,"1,3-dimethylimidazolium dimethyl phosphate",AAqlaB,CCO,ethanol,AAIsrh,Cn1cc[n+](C)c1,COP(=O)([O-])OC,2,,,,602,False,Cn1cc[n+](C)c1.COP(=O)([O-])OC,No changes
YLObv,328.15,100.0,868.0,Krolikowska et al. (2023),Liquid,0.0803,"1,3-dimethylimidazolium dimethyl phosphate",,,Cn1cc[n+](C)c1.COP(=O)([O-])OC,"1,3-dimethylimidazolium dimethyl phosphate",AAqlaB,CCO,ethanol,AAIsrh,Cn1cc[n+](C)c1,COP(=O)([O-])OC,2,,,,603,False,Cn1cc[n+](C)c1.COP(=O)([O-])OC,No changes
YLObv,328.15,100.0,890.0,Krolikowska et al. (2023),Liquid,0.1005,"1,3-dimethylimidazolium dimethyl phosphate",,,Cn1cc[n+](C)c1.COP(=O)([O-])OC,"1,3-dimethylimidazolium dimethyl phosphate",AAqlaB,CCO,ethanol,AAIsrh,Cn1cc[n+](C)c1,COP(=O)([O-])OC,2,,,,604,False,Cn1cc[n+](C)c1.COP(=O)([O-])OC,No changes
YLObv,328.15,100.0,909.0,Krolikowska et al. (2023),Liquid,0.1193,"1,3-dimethylimidazolium dimethyl phosphate",,,Cn1cc[n+](C)c1.COP(=O)([O-])OC,"1,3-dimethylimidazolium dimethyl phosphate",AAqlaB,CCO,ethanol,AAIsrh,Cn1cc[n+](C)c1,COP(=O)([O-])OC,2,,,,605,False,Cn1cc[n+](C)c1.COP(=O)([O-])OC,No changes
YLObv,328.15,100.0,945.0,Krolikowska et al. (2023),Liquid,0.1597,"1,3-dimethylimidazolium dimethyl phosphate",,,Cn1cc[n+](C)c1.COP(=O)([O-])OC,"1,3-dimethylimidazolium dimethyl phosphate",AAqlaB,CCO,ethanol,AAIsrh,Cn1cc[n+](C)c1,COP(=O)([O-])OC,2,,,,606,False,Cn1cc[n+](C)c1.COP(=O)([O-])OC,No changes
YLObv,328.15,100.0,977.0,Krolikowska et al. (2023),Liquid,0.2006,"1,3-dimethylimidazolium dimethyl phosphate",,,Cn1cc[n+](C)c1.COP(=O)([O-])OC,"1,3-dimethylimidazolium dimethyl phosphate",AAqlaB,CCO,ethanol,AAIsrh,Cn1cc[n+](C)c1,COP(=O)([O-])OC,2,,,,607,False,Cn1cc[n+](C)c1.COP(=O)([O-])OC,No changes
YLObv,328.15,100.0,1040.0,Krolikowska et al. (2023),Liquid,0.3005,"1,3-dimethylimidazolium dimethyl phosphate",,,Cn1cc[n+](C)c1.COP(=O)([O-])OC,"1,3-dimethylimidazolium dimethyl phosphate",AAqlaB,CCO,ethanol,AAIsrh,Cn1cc[n+](C)c1,COP(=O)([O-])OC,2,,,,608,False,Cn1cc[n+](C)c1.COP(=O)([O-])OC,No changes
YLObv,328.15,100.0,1090.0,Krolikowska et al. (2023),Liquid,0.4031,"1,3-dimethylimidazolium dimethyl phosphate",,,Cn1cc[n+](C)c1.COP(=O)([O-])OC,"1,3-dimethylimidazolium dimethyl phosphate",AAqlaB,CCO,ethanol,AAIsrh,Cn1cc[n+](C)c1,COP(=O)([O-])OC,2,,,,609,False,Cn1cc[n+](C)c1.COP(=O)([O-])OC,No changes
YLObv,328.15,100.0,1126.0,Krolikowska et al. (2023),Liquid,0.4996,"1,3-dimethylimidazolium dimethyl phosphate",,,Cn1cc[n+](C)c1.COP(=O)([O-])OC,"1,3-dimethylimidazolium dimethyl phosphate",AAqlaB,CCO,ethanol,AAIsrh,Cn1cc[n+](C)c1,COP(=O)([O-])OC,2,,,,610,False,Cn1cc[n+](C)c1.COP(=O)([O-])OC,No changes
YLObv,328.15,100.0,1158.0,Krolikowska et al. (2023),Liquid,0.6043,"1,3-dimethylimidazolium dimethyl phosphate",,,Cn1cc[n+](C)c1.COP(=O)([O-])OC,"1,3-dimethylimidazolium dimethyl phosphate",AAqlaB,CCO,ethanol,AAIsrh,Cn1cc[n+](C)c1,COP(=O)([O-])OC,2,,,,611,False,Cn1cc[n+](C)c1.COP(=O)([O-])OC,No changes
YLObv,328.15,100.0,1182.0,Krolikowska et al. (2023),Liquid,0.7009,"1,3-dimethylimidazolium dimethyl phosphate",,,Cn1cc[n+](C)c1.COP(=O)([O-])OC,"1,3-dimethylimidazolium dimethyl phosphate",AAqlaB,CCO,ethanol,AAIsrh,Cn1cc[n+](C)c1,COP(=O)([O-])OC,2,,,,612,False,Cn1cc[n+](C)c1.COP(=O)([O-])OC,No changes
YLObv,328.15,100.0,1202.0,Krolikowska et al. (2023),Liquid,0.797,"1,3-dimethylimidazolium dimethyl phosphate",,,Cn1cc[n+](C)c1.COP(=O)([O-])OC,"1,3-dimethylimidazolium dimethyl phosphate",AAqlaB,CCO,ethanol,AAIsrh,Cn1cc[n+](C)c1,COP(=O)([O-])OC,2,,,,613,False,Cn1cc[n+](C)c1.COP(=O)([O-])OC,No changes
YLObv,328.15,100.0,1220.0,Krolikowska et al. (2023),Liquid,0.8995,"1,3-dimethylimidazolium dimethyl phosphate",,,Cn1cc[n+](C)c1.COP(=O)([O-])OC,"1,3-dimethylimidazolium dimethyl phosphate",AAqlaB,CCO,ethanol,AAIsrh,Cn1cc[n+](C)c1,COP(=O)([O-])OC,2,,,,614,False,Cn1cc[n+](C)c1.COP(=O)([O-])OC,No changes
YLObv,328.15,100.0,1236.0,Krolikowska et al. (2023),Liquid,1.0,"1,3-dimethylimidazolium dimethyl phosphate",,,Cn1cc[n+](C)c1.COP(=O)([O-])OC,"1,3-dimethylimidazolium dimethyl phosphate",AAqlaB,CCO,ethanol,AAIsrh,Cn1cc[n+](C)c1,COP(=O)([O-])OC,2,,,,615,False,Cn1cc[n+](C)c1.COP(=O)([O-])OC,No changes
YLObv,333.15,100.0,754.0,Krolikowska et al. (2023),Liquid,0.0,"1,3-dimethylimidazolium dimethyl phosphate",,,Cn1cc[n+](C)c1.COP(=O)([O-])OC,"1,3-dimethylimidazolium dimethyl phosphate",AAqlaB,CCO,ethanol,AAIsrh,Cn1cc[n+](C)c1,COP(=O)([O-])OC,2,,,,616,False,Cn1cc[n+](C)c1.COP(=O)([O-])OC,No changes
YLObv,333.15,100.0,786.0,Krolikowska et al. (2023),Liquid,0.0201,"1,3-dimethylimidazolium dimethyl phosphate",,,Cn1cc[n+](C)c1.COP(=O)([O-])OC,"1,3-dimethylimidazolium dimethyl phosphate",AAqlaB,CCO,ethanol,AAIsrh,Cn1cc[n+](C)c1,COP(=O)([O-])OC,2,,,,617,False,Cn1cc[n+](C)c1.COP(=O)([O-])OC,No changes
YLObv,333.15,100.0,814.0,Krolikowska et al. (2023),Liquid,0.0402,"1,3-dimethylimidazolium dimethyl phosphate",,,Cn1cc[n+](C)c1.COP(=O)([O-])OC,"1,3-dimethylimidazolium dimethyl phosphate",AAqlaB,CCO,ethanol,AAIsrh,Cn1cc[n+](C)c1,COP(=O)([O-])OC,2,,,,618,False,Cn1cc[n+](C)c1.COP(=O)([O-])OC,No changes
YLObv,333.15,100.0,864.0,Krolikowska et al. (2023),Liquid,0.0803,"1,3-dimethylimidazolium dimethyl phosphate",,,Cn1cc[n+](C)c1.COP(=O)([O-])OC,"1,3-dimethylimidazolium dimethyl phosphate",AAqlaB,CCO,ethanol,AAIsrh,Cn1cc[n+](C)c1,COP(=O)([O-])OC,2,,,,619,False,Cn1cc[n+](C)c1.COP(=O)([O-])OC,No changes
YLObv,333.15,100.0,886.0,Krolikowska et al. (2023),Liquid,0.1005,"1,3-dimethylimidazolium dimethyl phosphate",,,Cn1cc[n+](C)c1.COP(=O)([O-])OC,"1,3-dimethylimidazolium dimethyl phosphate",AAqlaB,CCO,ethanol,AAIsrh,Cn1cc[n+](C)c1,COP(=O)([O-])OC,2,,,,620,False,Cn1cc[n+](C)c1.COP(=O)([O-])OC,No changes
YLObv,333.15,100.0,905.0,Krolikowska et al. (2023),Liquid,0.1193,"1,3-dimethylimidazolium dimethyl phosphate",,,Cn1cc[n+](C)c1.COP(=O)([O-])OC,"1,3-dimethylimidazolium dimethyl phosphate",AAqlaB,CCO,ethanol,AAIsrh,Cn1cc[n+](C)c1,COP(=O)([O-])OC,2,,,,621,False,Cn1cc[n+](C)c1.COP(=O)([O-])OC,No changes
YLObv,333.15,100.0,941.0,Krolikowska et al. (2023),Liquid,0.1597,"1,3-dimethylimidazolium dimethyl phosphate",,,Cn1cc[n+](C)c1.COP(=O)([O-])OC,"1,3-dimethylimidazolium dimethyl phosphate",AAqlaB,CCO,ethanol,AAIsrh,Cn1cc[n+](C)c1,COP(=O)([O-])OC,2,,,,622,False,Cn1cc[n+](C)c1.COP(=O)([O-])OC,No changes
YLObv,333.15,100.0,973.0,Krolikowska et al. (2023),Liquid,0.2006,"1,3-dimethylimidazolium dimethyl phosphate",,,Cn1cc[n+](C)c1.COP(=O)([O-])OC,"1,3-dimethylimidazolium dimethyl phosphate",AAqlaB,CCO,ethanol,AAIsrh,Cn1cc[n+](C)c1,COP(=O)([O-])OC,2,,,,623,False,Cn1cc[n+](C)c1.COP(=O)([O-])OC,No changes
YLObv,333.15,100.0,1037.0,Krolikowska et al. (2023),Liquid,0.3005,"1,3-dimethylimidazolium dimethyl phosphate",,,Cn1cc[n+](C)c1.COP(=O)([O-])OC,"1,3-dimethylimidazolium dimethyl phosphate",AAqlaB,CCO,ethanol,AAIsrh,Cn1cc[n+](C)c1,COP(=O)([O-])OC,2,,,,624,False,Cn1cc[n+](C)c1.COP(=O)([O-])OC,No changes
YLObv,333.15,100.0,1086.0,Krolikowska et al. (2023),Liquid,0.4031,"1,3-dimethylimidazolium dimethyl phosphate",,,Cn1cc[n+](C)c1.COP(=O)([O-])OC,"1,3-dimethylimidazolium dimethyl phosphate",AAqlaB,CCO,ethanol,AAIsrh,Cn1cc[n+](C)c1,COP(=O)([O-])OC,2,,,,625,False,Cn1cc[n+](C)c1.COP(=O)([O-])OC,No changes
YLObv,333.15,100.0,1122.0,Krolikowska et al. (2023),Liquid,0.4996,"1,3-dimethylimidazolium dimethyl phosphate",,,Cn1cc[n+](C)c1.COP(=O)([O-])OC,"1,3-dimethylimidazolium dimethyl phosphate",AAqlaB,CCO,ethanol,AAIsrh,Cn1cc[n+](C)c1,COP(=O)([O-])OC,2,,,,626,False,Cn1cc[n+](C)c1.COP(=O)([O-])OC,No changes
YLObv,333.15,100.0,1154.0,Krolikowska et al. (2023),Liquid,0.6043,"1,3-dimethylimidazolium dimethyl phosphate",,,Cn1cc[n+](C)c1.COP(=O)([O-])OC,"1,3-dimethylimidazolium dimethyl phosphate",AAqlaB,CCO,ethanol,AAIsrh,Cn1cc[n+](C)c1,COP(=O)([O-])OC,2,,,,627,False,Cn1cc[n+](C)c1.COP(=O)([O-])OC,No changes
YLObv,333.15,100.0,1178.0,Krolikowska et al. (2023),Liquid,0.7009,"1,3-dimethylimidazolium dimethyl phosphate",,,Cn1cc[n+](C)c1.COP(=O)([O-])OC,"1,3-dimethylimidazolium dimethyl phosphate",AAqlaB,CCO,ethanol,AAIsrh,Cn1cc[n+](C)c1,COP(=O)([O-])OC,2,,,,628,False,Cn1cc[n+](C)c1.COP(=O)([O-])OC,No changes
YLObv,333.15,100.0,1199.0,Krolikowska et al. (2023),Liquid,0.797,"1,3-dimethylimidazolium dimethyl phosphate",,,Cn1cc[n+](C)c1.COP(=O)([O-])OC,"1,3-dimethylimidazolium dimethyl phosphate",AAqlaB,CCO,ethanol,AAIsrh,Cn1cc[n+](C)c1,COP(=O)([O-])OC,2,,,,629,False,Cn1cc[n+](C)c1.COP(=O)([O-])OC,No changes
YLObv,333.15,100.0,1216.0,Krolikowska et al. (2023),Liquid,0.8995,"1,3-dimethylimidazolium dimethyl phosphate",,,Cn1cc[n+](C)c1.COP(=O)([O-])OC,"1,3-dimethylimidazolium dimethyl phosphate",AAqlaB,CCO,ethanol,AAIsrh,Cn1cc[n+](C)c1,COP(=O)([O-])OC,2,,,,630,False,Cn1cc[n+](C)c1.COP(=O)([O-])OC,No changes
YLObv,333.15,100.0,1233.0,Krolikowska et al. (2023),Liquid,1.0,"1,3-dimethylimidazolium dimethyl phosphate",,,Cn1cc[n+](C)c1.COP(=O)([O-])OC,"1,3-dimethylimidazolium dimethyl phosphate",AAqlaB,CCO,ethanol,AAIsrh,Cn1cc[n+](C)c1,COP(=O)([O-])OC,2,,,,631,False,Cn1cc[n+](C)c1.COP(=O)([O-])OC,No changes
YLObv,338.15,100.0,749.0,Krolikowska et al. (2023),Liquid,0.0,"1,3-dimethylimidazolium dimethyl phosphate",,,Cn1cc[n+](C)c1.COP(=O)([O-])OC,"1,3-dimethylimidazolium dimethyl phosphate",AAqlaB,CCO,ethanol,AAIsrh,Cn1cc[n+](C)c1,COP(=O)([O-])OC,2,,,,632,False,Cn1cc[n+](C)c1.COP(=O)([O-])OC,No changes
YLObv,338.15,100.0,782.0,Krolikowska et al. (2023),Liquid,0.0201,"1,3-dimethylimidazolium dimethyl phosphate",,,Cn1cc[n+](C)c1.COP(=O)([O-])OC,"1,3-dimethylimidazolium dimethyl phosphate",AAqlaB,CCO,ethanol,AAIsrh,Cn1cc[n+](C)c1,COP(=O)([O-])OC,2,,,,633,False,Cn1cc[n+](C)c1.COP(=O)([O-])OC,No changes
YLObv,338.15,100.0,810.0,Krolikowska et al. (2023),Liquid,0.0402,"1,3-dimethylimidazolium dimethyl phosphate",,,Cn1cc[n+](C)c1.COP(=O)([O-])OC,"1,3-dimethylimidazolium dimethyl phosphate",AAqlaB,CCO,ethanol,AAIsrh,Cn1cc[n+](C)c1,COP(=O)([O-])OC,2,,,,634,False,Cn1cc[n+](C)c1.COP(=O)([O-])OC,No changes
YLObv,338.15,100.0,860.0,Krolikowska et al. (2023),Liquid,0.0803,"1,3-dimethylimidazolium dimethyl phosphate",,,Cn1cc[n+](C)c1.COP(=O)([O-])OC,"1,3-dimethylimidazolium dimethyl phosphate",AAqlaB,CCO,ethanol,AAIsrh,Cn1cc[n+](C)c1,COP(=O)([O-])OC,2,,,,635,False,Cn1cc[n+](C)c1.COP(=O)([O-])OC,No changes
YLObv,338.15,100.0,882.0,Krolikowska et al. (2023),Liquid,0.1005,"1,3-dimethylimidazolium dimethyl phosphate",,,Cn1cc[n+](C)c1.COP(=O)([O-])OC,"1,3-dimethylimidazolium dimethyl phosphate",AAqlaB,CCO,ethanol,AAIsrh,Cn1cc[n+](C)c1,COP(=O)([O-])OC,2,,,,636,False,Cn1cc[n+](C)c1.COP(=O)([O-])OC,No changes
YLObv,338.15,100.0,900.0,Krolikowska et al. (2023),Liquid,0.1193,"1,3-dimethylimidazolium dimethyl phosphate",,,Cn1cc[n+](C)c1.COP(=O)([O-])OC,"1,3-dimethylimidazolium dimethyl phosphate",AAqlaB,CCO,ethanol,AAIsrh,Cn1cc[n+](C)c1,COP(=O)([O-])OC,2,,,,637,False,Cn1cc[n+](C)c1.COP(=O)([O-])OC,No changes
YLObv,338.15,100.0,937.0,Krolikowska et al. (2023),Liquid,0.1597,"1,3-dimethylimidazolium dimethyl phosphate",,,Cn1cc[n+](C)c1.COP(=O)([O-])OC,"1,3-dimethylimidazolium dimethyl phosphate",AAqlaB,CCO,ethanol,AAIsrh,Cn1cc[n+](C)c1,COP(=O)([O-])OC,2,,,,638,False,Cn1cc[n+](C)c1.COP(=O)([O-])OC,No changes
YLObv,338.15,100.0,969.0,Krolikowska et al. (2023),Liquid,0.2006,"1,3-dimethylimidazolium dimethyl phosphate",,,Cn1cc[n+](C)c1.COP(=O)([O-])OC,"1,3-dimethylimidazolium dimethyl phosphate",AAqlaB,CCO,ethanol,AAIsrh,Cn1cc[n+](C)c1,COP(=O)([O-])OC,2,,,,639,False,Cn1cc[n+](C)c1.COP(=O)([O-])OC,No changes
YLObv,338.15,100.0,1033.0,Krolikowska et al. (2023),Liquid,0.3005,"1,3-dimethylimidazolium dimethyl phosphate",,,Cn1cc[n+](C)c1.COP(=O)([O-])OC,"1,3-dimethylimidazolium dimethyl phosphate",AAqlaB,CCO,ethanol,AAIsrh,Cn1cc[n+](C)c1,COP(=O)([O-])OC,2,,,,640,False,Cn1cc[n+](C)c1.COP(=O)([O-])OC,No changes
YLObv,338.15,100.0,1083.0,Krolikowska et al. (2023),Liquid,0.4031,"1,3-dimethylimidazolium dimethyl phosphate",,,Cn1cc[n+](C)c1.COP(=O)([O-])OC,"1,3-dimethylimidazolium dimethyl phosphate",AAqlaB,CCO,ethanol,AAIsrh,Cn1cc[n+](C)c1,COP(=O)([O-])OC,2,,,,641,False,Cn1cc[n+](C)c1.COP(=O)([O-])OC,No changes
YLObv,338.15,100.0,1119.0,Krolikowska et al. (2023),Liquid,0.4996,"1,3-dimethylimidazolium dimethyl phosphate",,,Cn1cc[n+](C)c1.COP(=O)([O-])OC,"1,3-dimethylimidazolium dimethyl phosphate",AAqlaB,CCO,ethanol,AAIsrh,Cn1cc[n+](C)c1,COP(=O)([O-])OC,2,,,,642,False,Cn1cc[n+](C)c1.COP(=O)([O-])OC,No changes
YLObv,338.15,100.0,1151.0,Krolikowska et al. (2023),Liquid,0.6043,"1,3-dimethylimidazolium dimethyl phosphate",,,Cn1cc[n+](C)c1.COP(=O)([O-])OC,"1,3-dimethylimidazolium dimethyl phosphate",AAqlaB,CCO,ethanol,AAIsrh,Cn1cc[n+](C)c1,COP(=O)([O-])OC,2,,,,643,False,Cn1cc[n+](C)c1.COP(=O)([O-])OC,No changes
YLObv,338.15,100.0,1175.0,Krolikowska et al. (2023),Liquid,0.7009,"1,3-dimethylimidazolium dimethyl phosphate",,,Cn1cc[n+](C)c1.COP(=O)([O-])OC,"1,3-dimethylimidazolium dimethyl phosphate",AAqlaB,CCO,ethanol,AAIsrh,Cn1cc[n+](C)c1,COP(=O)([O-])OC,2,,,,644,False,Cn1cc[n+](C)c1.COP(=O)([O-])OC,No changes
YLObv,338.15,100.0,1195.0,Krolikowska et al. (2023),Liquid,0.797,"1,3-dimethylimidazolium dimethyl phosphate",,,Cn1cc[n+](C)c1.COP(=O)([O-])OC,"1,3-dimethylimidazolium dimethyl phosphate",AAqlaB,CCO,ethanol,AAIsrh,Cn1cc[n+](C)c1,COP(=O)([O-])OC,2,,,,645,False,Cn1cc[n+](C)c1.COP(=O)([O-])OC,No changes
YLObv,338.15,100.0,1213.0,Krolikowska et al. (2023),Liquid,0.8995,"1,3-dimethylimidazolium dimethyl phosphate",,,Cn1cc[n+](C)c1.COP(=O)([O-])OC,"1,3-dimethylimidazolium dimethyl phosphate",AAqlaB,CCO,ethanol,AAIsrh,Cn1cc[n+](C)c1,COP(=O)([O-])OC,2,,,,646,False,Cn1cc[n+](C)c1.COP(=O)([O-])OC,No changes
YLObv,338.15,100.0,1229.0,Krolikowska et al. (2023),Liquid,1.0,"1,3-dimethylimidazolium dimethyl phosphate",,,Cn1cc[n+](C)c1.COP(=O)([O-])OC,"1,3-dimethylimidazolium dimethyl phosphate",AAqlaB,CCO,ethanol,AAIsrh,Cn1cc[n+](C)c1,COP(=O)([O-])OC,2,,,,647,False,Cn1cc[n+](C)c1.COP(=O)([O-])OC,No changes
OYAGg,293.15,100.0,789.5,Hou et al. (2014),Liquid,0.0,"1,3-dimethylimidazolium acetate",,,Cn1cc[n+](C)c1.CC(=O)[O-],"1,3-dimethylimidazolium acetate",AAeBvd,CCO,ethanol,AAIsrh,Cn1cc[n+](C)c1,CC(=O)[O-],2,,,,648,False,Cn1cc[n+](C)c1.CC(=O)[O-],No changes
OYAGg,293.15,100.0,814.7,Hou et al. (2014),Liquid,0.0291,"1,3-dimethylimidazolium acetate",,,Cn1cc[n+](C)c1.CC(=O)[O-],"1,3-dimethylimidazolium acetate",AAeBvd,CCO,ethanol,AAIsrh,Cn1cc[n+](C)c1,CC(=O)[O-],2,,,,649,False,Cn1cc[n+](C)c1.CC(=O)[O-],No changes
OYAGg,293.15,100.0,823.6,Hou et al. (2014),Liquid,0.0405,"1,3-dimethylimidazolium acetate",,,Cn1cc[n+](C)c1.CC(=O)[O-],"1,3-dimethylimidazolium acetate",AAeBvd,CCO,ethanol,AAIsrh,Cn1cc[n+](C)c1,CC(=O)[O-],2,,,,650,False,Cn1cc[n+](C)c1.CC(=O)[O-],No changes
OYAGg,293.15,100.0,832.1,Hou et al. (2014),Liquid,0.0513,"1,3-dimethylimidazolium acetate",,,Cn1cc[n+](C)c1.CC(=O)[O-],"1,3-dimethylimidazolium acetate",AAeBvd,CCO,ethanol,AAIsrh,Cn1cc[n+](C)c1,CC(=O)[O-],2,,,,651,False,Cn1cc[n+](C)c1.CC(=O)[O-],No changes
OYAGg,293.15,100.0,848.3,Hou et al. (2014),Liquid,0.0733,"1,3-dimethylimidazolium acetate",,,Cn1cc[n+](C)c1.CC(=O)[O-],"1,3-dimethylimidazolium acetate",AAeBvd,CCO,ethanol,AAIsrh,Cn1cc[n+](C)c1,CC(=O)[O-],2,,,,652,False,Cn1cc[n+](C)c1.CC(=O)[O-],No changes
OYAGg,293.15,100.0,877.3,Hou et al. (2014),Liquid,0.1157,"1,3-dimethylimidazolium acetate",,,Cn1cc[n+](C)c1.CC(=O)[O-],"1,3-dimethylimidazolium acetate",AAeBvd,CCO,ethanol,AAIsrh,Cn1cc[n+](C)c1,CC(=O)[O-],2,,,,653,False,Cn1cc[n+](C)c1.CC(=O)[O-],No changes
OYAGg,293.15,100.0,931.8,Hou et al. (2014),Liquid,0.2104,"1,3-dimethylimidazolium acetate",,,Cn1cc[n+](C)c1.CC(=O)[O-],"1,3-dimethylimidazolium acetate",AAeBvd,CCO,ethanol,AAIsrh,Cn1cc[n+](C)c1,CC(=O)[O-],2,,,,654,False,Cn1cc[n+](C)c1.CC(=O)[O-],No changes
OYAGg,293.15,100.0,942.4,Hou et al. (2014),Liquid,0.2315,"1,3-dimethylimidazolium acetate",,,Cn1cc[n+](C)c1.CC(=O)[O-],"1,3-dimethylimidazolium acetate",AAeBvd,CCO,ethanol,AAIsrh,Cn1cc[n+](C)c1,CC(=O)[O-],2,,,,655,False,Cn1cc[n+](C)c1.CC(=O)[O-],No changes
OYAGg,293.15,100.0,956.1,Hou et al. (2014),Liquid,0.2607,"1,3-dimethylimidazolium acetate",,,Cn1cc[n+](C)c1.CC(=O)[O-],"1,3-dimethylimidazolium acetate",AAeBvd,CCO,ethanol,AAIsrh,Cn1cc[n+](C)c1,CC(=O)[O-],2,,,,656,False,Cn1cc[n+](C)c1.CC(=O)[O-],No changes
OYAGg,293.15,100.0,980.5,Hou et al. (2014),Liquid,0.3185,"1,3-dimethylimidazolium acetate",,,Cn1cc[n+](C)c1.CC(=O)[O-],"1,3-dimethylimidazolium acetate",AAeBvd,CCO,ethanol,AAIsrh,Cn1cc[n+](C)c1,CC(=O)[O-],2,,,,657,False,Cn1cc[n+](C)c1.CC(=O)[O-],No changes
OYAGg,293.15,100.0,1037.9,Hou et al. (2014),Liquid,0.4929,"1,3-dimethylimidazolium acetate",,,Cn1cc[n+](C)c1.CC(=O)[O-],"1,3-dimethylimidazolium acetate",AAeBvd,CCO,ethanol,AAIsrh,Cn1cc[n+](C)c1,CC(=O)[O-],2,,,,658,False,Cn1cc[n+](C)c1.CC(=O)[O-],No changes