setid,Temperature (K),Pressure (kPa),Density (kg/m3),reference,phases,Mole fraction,Mole fraction of compound name,Weight fraction,Weight fraction of compound name,IL_SMILES,IL_name,IL_ID,Solvent_SMILES,Solvent_name,Solvent_ID,IL_cation_SMILES,IL_anion_SMILES,IL_component_number,Mole fraction of solvent,IL_MW,Solvent_MW,Record_ID,Contains_Metal,Standardized_IL_SMILES,Changes
Abmnd,308.15,100.0,922.0,Krolikowska et al. (2021b),Liquid,0.1077,1-(2-hydroxyethyl)-1-methylpyrrolidinium dimethyl phosphate,,,C[N+]1(CCO)CCCC1.COP(=O)([O-])OC,1-(2-hydroxyethyl)-1-methylpyrrolidinium dimethyl phosphate,AAxEby,CCO,ethanol,AAIsrh,C[N+]1(CCO)CCCC1,COP(=O)([O-])OC,2,,,,2433,False,C[N+]1(CCO)CCCC1.COP(=O)([O-])OC,No changes
Abmnd,308.15,100.0,963.0,Krolikowska et al. (2021b),Liquid,0.1523,1-(2-hydroxyethyl)-1-methylpyrrolidinium dimethyl phosphate,,,C[N+]1(CCO)CCCC1.COP(=O)([O-])OC,1-(2-hydroxyethyl)-1-methylpyrrolidinium dimethyl phosphate,AAxEby,CCO,ethanol,AAIsrh,C[N+]1(CCO)CCCC1,COP(=O)([O-])OC,2,,,,2434,False,C[N+]1(CCO)CCCC1.COP(=O)([O-])OC,No changes
Abmnd,308.15,100.0,1005.0,Krolikowska et al. (2021b),Liquid,0.2079,1-(2-hydroxyethyl)-1-methylpyrrolidinium dimethyl phosphate,,,C[N+]1(CCO)CCCC1.COP(=O)([O-])OC,1-(2-hydroxyethyl)-1-methylpyrrolidinium dimethyl phosphate,AAxEby,CCO,ethanol,AAIsrh,C[N+]1(CCO)CCCC1,COP(=O)([O-])OC,2,,,,2435,False,C[N+]1(CCO)CCCC1.COP(=O)([O-])OC,No changes
Abmnd,308.15,100.0,1034.0,Krolikowska et al. (2021b),Liquid,0.2537,1-(2-hydroxyethyl)-1-methylpyrrolidinium dimethyl phosphate,,,C[N+]1(CCO)CCCC1.COP(=O)([O-])OC,1-(2-hydroxyethyl)-1-methylpyrrolidinium dimethyl phosphate,AAxEby,CCO,ethanol,AAIsrh,C[N+]1(CCO)CCCC1,COP(=O)([O-])OC,2,,,,2436,False,C[N+]1(CCO)CCCC1.COP(=O)([O-])OC,No changes
Abmnd,308.15,100.0,1063.0,Krolikowska et al. (2021b),Liquid,0.3084,1-(2-hydroxyethyl)-1-methylpyrrolidinium dimethyl phosphate,,,C[N+]1(CCO)CCCC1.COP(=O)([O-])OC,1-(2-hydroxyethyl)-1-methylpyrrolidinium dimethyl phosphate,AAxEby,CCO,ethanol,AAIsrh,C[N+]1(CCO)CCCC1,COP(=O)([O-])OC,2,,,,2437,False,C[N+]1(CCO)CCCC1.COP(=O)([O-])OC,No changes
Abmnd,308.15,100.0,1103.0,Krolikowska et al. (2021b),Liquid,0.4033,1-(2-hydroxyethyl)-1-methylpyrrolidinium dimethyl phosphate,,,C[N+]1(CCO)CCCC1.COP(=O)([O-])OC,1-(2-hydroxyethyl)-1-methylpyrrolidinium dimethyl phosphate,AAxEby,CCO,ethanol,AAIsrh,C[N+]1(CCO)CCCC1,COP(=O)([O-])OC,2,,,,2438,False,C[N+]1(CCO)CCCC1.COP(=O)([O-])OC,No changes
Abmnd,308.15,100.0,1137.0,Krolikowska et al. (2021b),Liquid,0.5077,1-(2-hydroxyethyl)-1-methylpyrrolidinium dimethyl phosphate,,,C[N+]1(CCO)CCCC1.COP(=O)([O-])OC,1-(2-hydroxyethyl)-1-methylpyrrolidinium dimethyl phosphate,AAxEby,CCO,ethanol,AAIsrh,C[N+]1(CCO)CCCC1,COP(=O)([O-])OC,2,,,,2439,False,C[N+]1(CCO)CCCC1.COP(=O)([O-])OC,No changes
Abmnd,308.15,100.0,1162.0,Krolikowska et al. (2021b),Liquid,0.6042,1-(2-hydroxyethyl)-1-methylpyrrolidinium dimethyl phosphate,,,C[N+]1(CCO)CCCC1.COP(=O)([O-])OC,1-(2-hydroxyethyl)-1-methylpyrrolidinium dimethyl phosphate,AAxEby,CCO,ethanol,AAIsrh,C[N+]1(CCO)CCCC1,COP(=O)([O-])OC,2,,,,2440,False,C[N+]1(CCO)CCCC1.COP(=O)([O-])OC,No changes
Abmnd,308.15,100.0,1184.0,Krolikowska et al. (2021b),Liquid,0.7053,1-(2-hydroxyethyl)-1-methylpyrrolidinium dimethyl phosphate,,,C[N+]1(CCO)CCCC1.COP(=O)([O-])OC,1-(2-hydroxyethyl)-1-methylpyrrolidinium dimethyl phosphate,AAxEby,CCO,ethanol,AAIsrh,C[N+]1(CCO)CCCC1,COP(=O)([O-])OC,2,,,,2441,False,C[N+]1(CCO)CCCC1.COP(=O)([O-])OC,No changes
Abmnd,308.15,100.0,1201.0,Krolikowska et al. (2021b),Liquid,0.8055,1-(2-hydroxyethyl)-1-methylpyrrolidinium dimethyl phosphate,,,C[N+]1(CCO)CCCC1.COP(=O)([O-])OC,1-(2-hydroxyethyl)-1-methylpyrrolidinium dimethyl phosphate,AAxEby,CCO,ethanol,AAIsrh,C[N+]1(CCO)CCCC1,COP(=O)([O-])OC,2,,,,2442,False,C[N+]1(CCO)CCCC1.COP(=O)([O-])OC,No changes
Abmnd,308.15,100.0,1216.0,Krolikowska et al. (2021b),Liquid,0.9053,1-(2-hydroxyethyl)-1-methylpyrrolidinium dimethyl phosphate,,,C[N+]1(CCO)CCCC1.COP(=O)([O-])OC,1-(2-hydroxyethyl)-1-methylpyrrolidinium dimethyl phosphate,AAxEby,CCO,ethanol,AAIsrh,C[N+]1(CCO)CCCC1,COP(=O)([O-])OC,2,,,,2443,False,C[N+]1(CCO)CCCC1.COP(=O)([O-])OC,No changes
Abmnd,308.15,100.0,1228.0,Krolikowska et al. (2021b),Liquid,1.0,1-(2-hydroxyethyl)-1-methylpyrrolidinium dimethyl phosphate,,,C[N+]1(CCO)CCCC1.COP(=O)([O-])OC,1-(2-hydroxyethyl)-1-methylpyrrolidinium dimethyl phosphate,AAxEby,CCO,ethanol,AAIsrh,C[N+]1(CCO)CCCC1,COP(=O)([O-])OC,2,,,,2444,False,C[N+]1(CCO)CCCC1.COP(=O)([O-])OC,No changes
Abmnd,313.15,100.0,772.0,Krolikowska et al. (2021b),Liquid,0.0,1-(2-hydroxyethyl)-1-methylpyrrolidinium dimethyl phosphate,,,C[N+]1(CCO)CCCC1.COP(=O)([O-])OC,1-(2-hydroxyethyl)-1-methylpyrrolidinium dimethyl phosphate,AAxEby,CCO,ethanol,AAIsrh,C[N+]1(CCO)CCCC1,COP(=O)([O-])OC,2,,,,2445,False,C[N+]1(CCO)CCCC1.COP(=O)([O-])OC,No changes
Abmnd,313.15,100.0,858.0,Krolikowska et al. (2021b),Liquid,0.0561,1-(2-hydroxyethyl)-1-methylpyrrolidinium dimethyl phosphate,,,C[N+]1(CCO)CCCC1.COP(=O)([O-])OC,1-(2-hydroxyethyl)-1-methylpyrrolidinium dimethyl phosphate,AAxEby,CCO,ethanol,AAIsrh,C[N+]1(CCO)CCCC1,COP(=O)([O-])OC,2,,,,2446,False,C[N+]1(CCO)CCCC1.COP(=O)([O-])OC,No changes
Abmnd,313.15,100.0,918.0,Krolikowska et al. (2021b),Liquid,0.1077,1-(2-hydroxyethyl)-1-methylpyrrolidinium dimethyl phosphate,,,C[N+]1(CCO)CCCC1.COP(=O)([O-])OC,1-(2-hydroxyethyl)-1-methylpyrrolidinium dimethyl phosphate,AAxEby,CCO,ethanol,AAIsrh,C[N+]1(CCO)CCCC1,COP(=O)([O-])OC,2,,,,2447,False,C[N+]1(CCO)CCCC1.COP(=O)([O-])OC,No changes
Abmnd,313.15,100.0,960.0,Krolikowska et al. (2021b),Liquid,0.1523,1-(2-hydroxyethyl)-1-methylpyrrolidinium dimethyl phosphate,,,C[N+]1(CCO)CCCC1.COP(=O)([O-])OC,1-(2-hydroxyethyl)-1-methylpyrrolidinium dimethyl phosphate,AAxEby,CCO,ethanol,AAIsrh,C[N+]1(CCO)CCCC1,COP(=O)([O-])OC,2,,,,2448,False,C[N+]1(CCO)CCCC1.COP(=O)([O-])OC,No changes
Abmnd,313.15,100.0,1002.0,Krolikowska et al. (2021b),Liquid,0.2079,1-(2-hydroxyethyl)-1-methylpyrrolidinium dimethyl phosphate,,,C[N+]1(CCO)CCCC1.COP(=O)([O-])OC,1-(2-hydroxyethyl)-1-methylpyrrolidinium dimethyl phosphate,AAxEby,CCO,ethanol,AAIsrh,C[N+]1(CCO)CCCC1,COP(=O)([O-])OC,2,,,,2449,False,C[N+]1(CCO)CCCC1.COP(=O)([O-])OC,No changes
Abmnd,313.15,100.0,1030.0,Krolikowska et al. (2021b),Liquid,0.2537,1-(2-hydroxyethyl)-1-methylpyrrolidinium dimethyl phosphate,,,C[N+]1(CCO)CCCC1.COP(=O)([O-])OC,1-(2-hydroxyethyl)-1-methylpyrrolidinium dimethyl phosphate,AAxEby,CCO,ethanol,AAIsrh,C[N+]1(CCO)CCCC1,COP(=O)([O-])OC,2,,,,2450,False,C[N+]1(CCO)CCCC1.COP(=O)([O-])OC,No changes
Abmnd,313.15,100.0,1060.0,Krolikowska et al. (2021b),Liquid,0.3084,1-(2-hydroxyethyl)-1-methylpyrrolidinium dimethyl phosphate,,,C[N+]1(CCO)CCCC1.COP(=O)([O-])OC,1-(2-hydroxyethyl)-1-methylpyrrolidinium dimethyl phosphate,AAxEby,CCO,ethanol,AAIsrh,C[N+]1(CCO)CCCC1,COP(=O)([O-])OC,2,,,,2451,False,C[N+]1(CCO)CCCC1.COP(=O)([O-])OC,No changes
Abmnd,313.15,100.0,1100.0,Krolikowska et al. (2021b),Liquid,0.4033,1-(2-hydroxyethyl)-1-methylpyrrolidinium dimethyl phosphate,,,C[N+]1(CCO)CCCC1.COP(=O)([O-])OC,1-(2-hydroxyethyl)-1-methylpyrrolidinium dimethyl phosphate,AAxEby,CCO,ethanol,AAIsrh,C[N+]1(CCO)CCCC1,COP(=O)([O-])OC,2,,,,2452,False,C[N+]1(CCO)CCCC1.COP(=O)([O-])OC,No changes
Abmnd,313.15,100.0,1134.0,Krolikowska et al. (2021b),Liquid,0.5077,1-(2-hydroxyethyl)-1-methylpyrrolidinium dimethyl phosphate,,,C[N+]1(CCO)CCCC1.COP(=O)([O-])OC,1-(2-hydroxyethyl)-1-methylpyrrolidinium dimethyl phosphate,AAxEby,CCO,ethanol,AAIsrh,C[N+]1(CCO)CCCC1,COP(=O)([O-])OC,2,,,,2453,False,C[N+]1(CCO)CCCC1.COP(=O)([O-])OC,No changes
Abmnd,313.15,100.0,1159.0,Krolikowska et al. (2021b),Liquid,0.6042,1-(2-hydroxyethyl)-1-methylpyrrolidinium dimethyl phosphate,,,C[N+]1(CCO)CCCC1.COP(=O)([O-])OC,1-(2-hydroxyethyl)-1-methylpyrrolidinium dimethyl phosphate,AAxEby,CCO,ethanol,AAIsrh,C[N+]1(CCO)CCCC1,COP(=O)([O-])OC,2,,,,2454,False,C[N+]1(CCO)CCCC1.COP(=O)([O-])OC,No changes
Abmnd,313.15,100.0,1181.0,Krolikowska et al. (2021b),Liquid,0.7053,1-(2-hydroxyethyl)-1-methylpyrrolidinium dimethyl phosphate,,,C[N+]1(CCO)CCCC1.COP(=O)([O-])OC,1-(2-hydroxyethyl)-1-methylpyrrolidinium dimethyl phosphate,AAxEby,CCO,ethanol,AAIsrh,C[N+]1(CCO)CCCC1,COP(=O)([O-])OC,2,,,,2455,False,C[N+]1(CCO)CCCC1.COP(=O)([O-])OC,No changes
Abmnd,313.15,100.0,1198.0,Krolikowska et al. (2021b),Liquid,0.8055,1-(2-hydroxyethyl)-1-methylpyrrolidinium dimethyl phosphate,,,C[N+]1(CCO)CCCC1.COP(=O)([O-])OC,1-(2-hydroxyethyl)-1-methylpyrrolidinium dimethyl phosphate,AAxEby,CCO,ethanol,AAIsrh,C[N+]1(CCO)CCCC1,COP(=O)([O-])OC,2,,,,2456,False,C[N+]1(CCO)CCCC1.COP(=O)([O-])OC,No changes
Abmnd,313.15,100.0,1213.0,Krolikowska et al. (2021b),Liquid,0.9053,1-(2-hydroxyethyl)-1-methylpyrrolidinium dimethyl phosphate,,,C[N+]1(CCO)CCCC1.COP(=O)([O-])OC,1-(2-hydroxyethyl)-1-methylpyrrolidinium dimethyl phosphate,AAxEby,CCO,ethanol,AAIsrh,C[N+]1(CCO)CCCC1,COP(=O)([O-])OC,2,,,,2457,False,C[N+]1(CCO)CCCC1.COP(=O)([O-])OC,No changes
Abmnd,313.15,100.0,1225.0,Krolikowska et al. (2021b),Liquid,1.0,1-(2-hydroxyethyl)-1-methylpyrrolidinium dimethyl phosphate,,,C[N+]1(CCO)CCCC1.COP(=O)([O-])OC,1-(2-hydroxyethyl)-1-methylpyrrolidinium dimethyl phosphate,AAxEby,CCO,ethanol,AAIsrh,C[N+]1(CCO)CCCC1,COP(=O)([O-])OC,2,,,,2458,False,C[N+]1(CCO)CCCC1.COP(=O)([O-])OC,No changes
Abmnd,318.15,100.0,768.0,Krolikowska et al. (2021b),Liquid,0.0,1-(2-hydroxyethyl)-1-methylpyrrolidinium dimethyl phosphate,,,C[N+]1(CCO)CCCC1.COP(=O)([O-])OC,1-(2-hydroxyethyl)-1-methylpyrrolidinium dimethyl phosphate,AAxEby,CCO,ethanol,AAIsrh,C[N+]1(CCO)CCCC1,COP(=O)([O-])OC,2,,,,2459,False,C[N+]1(CCO)CCCC1.COP(=O)([O-])OC,No changes
Abmnd,318.15,100.0,854.0,Krolikowska et al. (2021b),Liquid,0.0561,1-(2-hydroxyethyl)-1-methylpyrrolidinium dimethyl phosphate,,,C[N+]1(CCO)CCCC1.COP(=O)([O-])OC,1-(2-hydroxyethyl)-1-methylpyrrolidinium dimethyl phosphate,AAxEby,CCO,ethanol,AAIsrh,C[N+]1(CCO)CCCC1,COP(=O)([O-])OC,2,,,,2460,False,C[N+]1(CCO)CCCC1.COP(=O)([O-])OC,No changes
Abmnd,318.15,100.0,914.0,Krolikowska et al. (2021b),Liquid,0.1077,1-(2-hydroxyethyl)-1-methylpyrrolidinium dimethyl phosphate,,,C[N+]1(CCO)CCCC1.COP(=O)([O-])OC,1-(2-hydroxyethyl)-1-methylpyrrolidinium dimethyl phosphate,AAxEby,CCO,ethanol,AAIsrh,C[N+]1(CCO)CCCC1,COP(=O)([O-])OC,2,,,,2461,False,C[N+]1(CCO)CCCC1.COP(=O)([O-])OC,No changes
Abmnd,318.15,100.0,956.0,Krolikowska et al. (2021b),Liquid,0.1523,1-(2-hydroxyethyl)-1-methylpyrrolidinium dimethyl phosphate,,,C[N+]1(CCO)CCCC1.COP(=O)([O-])OC,1-(2-hydroxyethyl)-1-methylpyrrolidinium dimethyl phosphate,AAxEby,CCO,ethanol,AAIsrh,C[N+]1(CCO)CCCC1,COP(=O)([O-])OC,2,,,,2462,False,C[N+]1(CCO)CCCC1.COP(=O)([O-])OC,No changes
Abmnd,318.15,100.0,998.0,Krolikowska et al. (2021b),Liquid,0.2079,1-(2-hydroxyethyl)-1-methylpyrrolidinium dimethyl phosphate,,,C[N+]1(CCO)CCCC1.COP(=O)([O-])OC,1-(2-hydroxyethyl)-1-methylpyrrolidinium dimethyl phosphate,AAxEby,CCO,ethanol,AAIsrh,C[N+]1(CCO)CCCC1,COP(=O)([O-])OC,2,,,,2463,False,C[N+]1(CCO)CCCC1.COP(=O)([O-])OC,No changes
Abmnd,318.15,100.0,1027.0,Krolikowska et al. (2021b),Liquid,0.2537,1-(2-hydroxyethyl)-1-methylpyrrolidinium dimethyl phosphate,,,C[N+]1(CCO)CCCC1.COP(=O)([O-])OC,1-(2-hydroxyethyl)-1-methylpyrrolidinium dimethyl phosphate,AAxEby,CCO,ethanol,AAIsrh,C[N+]1(CCO)CCCC1,COP(=O)([O-])OC,2,,,,2464,False,C[N+]1(CCO)CCCC1.COP(=O)([O-])OC,No changes
Abmnd,318.15,100.0,1056.0,Krolikowska et al. (2021b),Liquid,0.3084,1-(2-hydroxyethyl)-1-methylpyrrolidinium dimethyl phosphate,,,C[N+]1(CCO)CCCC1.COP(=O)([O-])OC,1-(2-hydroxyethyl)-1-methylpyrrolidinium dimethyl phosphate,AAxEby,CCO,ethanol,AAIsrh,C[N+]1(CCO)CCCC1,COP(=O)([O-])OC,2,,,,2465,False,C[N+]1(CCO)CCCC1.COP(=O)([O-])OC,No changes
Abmnd,318.15,100.0,1096.0,Krolikowska et al. (2021b),Liquid,0.4033,1-(2-hydroxyethyl)-1-methylpyrrolidinium dimethyl phosphate,,,C[N+]1(CCO)CCCC1.COP(=O)([O-])OC,1-(2-hydroxyethyl)-1-methylpyrrolidinium dimethyl phosphate,AAxEby,CCO,ethanol,AAIsrh,C[N+]1(CCO)CCCC1,COP(=O)([O-])OC,2,,,,2466,False,C[N+]1(CCO)CCCC1.COP(=O)([O-])OC,No changes
Abmnd,318.15,100.0,1131.0,Krolikowska et al. (2021b),Liquid,0.5077,1-(2-hydroxyethyl)-1-methylpyrrolidinium dimethyl phosphate,,,C[N+]1(CCO)CCCC1.COP(=O)([O-])OC,1-(2-hydroxyethyl)-1-methylpyrrolidinium dimethyl phosphate,AAxEby,CCO,ethanol,AAIsrh,C[N+]1(CCO)CCCC1,COP(=O)([O-])OC,2,,,,2467,False,C[N+]1(CCO)CCCC1.COP(=O)([O-])OC,No changes
Abmnd,318.15,100.0,1156.0,Krolikowska et al. (2021b),Liquid,0.6042,1-(2-hydroxyethyl)-1-methylpyrrolidinium dimethyl phosphate,,,C[N+]1(CCO)CCCC1.COP(=O)([O-])OC,1-(2-hydroxyethyl)-1-methylpyrrolidinium dimethyl phosphate,AAxEby,CCO,ethanol,AAIsrh,C[N+]1(CCO)CCCC1,COP(=O)([O-])OC,2,,,,2468,False,C[N+]1(CCO)CCCC1.COP(=O)([O-])OC,No changes
Abmnd,318.15,100.0,1177.0,Krolikowska et al. (2021b),Liquid,0.7053,1-(2-hydroxyethyl)-1-methylpyrrolidinium dimethyl phosphate,,,C[N+]1(CCO)CCCC1.COP(=O)([O-])OC,1-(2-hydroxyethyl)-1-methylpyrrolidinium dimethyl phosphate,AAxEby,CCO,ethanol,AAIsrh,C[N+]1(CCO)CCCC1,COP(=O)([O-])OC,2,,,,2469,False,C[N+]1(CCO)CCCC1.COP(=O)([O-])OC,No changes
Abmnd,318.15,100.0,1195.0,Krolikowska et al. (2021b),Liquid,0.8055,1-(2-hydroxyethyl)-1-methylpyrrolidinium dimethyl phosphate,,,C[N+]1(CCO)CCCC1.COP(=O)([O-])OC,1-(2-hydroxyethyl)-1-methylpyrrolidinium dimethyl phosphate,AAxEby,CCO,ethanol,AAIsrh,C[N+]1(CCO)CCCC1,COP(=O)([O-])OC,2,,,,2470,False,C[N+]1(CCO)CCCC1.COP(=O)([O-])OC,No changes
Abmnd,318.15,100.0,1210.0,Krolikowska et al. (2021b),Liquid,0.9053,1-(2-hydroxyethyl)-1-methylpyrrolidinium dimethyl phosphate,,,C[N+]1(CCO)CCCC1.COP(=O)([O-])OC,1-(2-hydroxyethyl)-1-methylpyrrolidinium dimethyl phosphate,AAxEby,CCO,ethanol,AAIsrh,C[N+]1(CCO)CCCC1,COP(=O)([O-])OC,2,,,,2471,False,C[N+]1(CCO)CCCC1.COP(=O)([O-])OC,No changes
Abmnd,318.15,100.0,1221.0,Krolikowska et al. (2021b),Liquid,1.0,1-(2-hydroxyethyl)-1-methylpyrrolidinium dimethyl phosphate,,,C[N+]1(CCO)CCCC1.COP(=O)([O-])OC,1-(2-hydroxyethyl)-1-methylpyrrolidinium dimethyl phosphate,AAxEby,CCO,ethanol,AAIsrh,C[N+]1(CCO)CCCC1,COP(=O)([O-])OC,2,,,,2472,False,C[N+]1(CCO)CCCC1.COP(=O)([O-])OC,No changes
Abmnd,323.15,100.0,763.0,Krolikowska et al. (2021b),Liquid,0.0,1-(2-hydroxyethyl)-1-methylpyrrolidinium dimethyl phosphate,,,C[N+]1(CCO)CCCC1.COP(=O)([O-])OC,1-(2-hydroxyethyl)-1-methylpyrrolidinium dimethyl phosphate,AAxEby,CCO,ethanol,AAIsrh,C[N+]1(CCO)CCCC1,COP(=O)([O-])OC,2,,,,2473,False,C[N+]1(CCO)CCCC1.COP(=O)([O-])OC,No changes
Abmnd,323.15,100.0,850.0,Krolikowska et al. (2021b),Liquid,0.0561,1-(2-hydroxyethyl)-1-methylpyrrolidinium dimethyl phosphate,,,C[N+]1(CCO)CCCC1.COP(=O)([O-])OC,1-(2-hydroxyethyl)-1-methylpyrrolidinium dimethyl phosphate,AAxEby,CCO,ethanol,AAIsrh,C[N+]1(CCO)CCCC1,COP(=O)([O-])OC,2,,,,2474,False,C[N+]1(CCO)CCCC1.COP(=O)([O-])OC,No changes
Abmnd,323.15,100.0,910.0,Krolikowska et al. (2021b),Liquid,0.1077,1-(2-hydroxyethyl)-1-methylpyrrolidinium dimethyl phosphate,,,C[N+]1(CCO)CCCC1.COP(=O)([O-])OC,1-(2-hydroxyethyl)-1-methylpyrrolidinium dimethyl phosphate,AAxEby,CCO,ethanol,AAIsrh,C[N+]1(CCO)CCCC1,COP(=O)([O-])OC,2,,,,2475,False,C[N+]1(CCO)CCCC1.COP(=O)([O-])OC,No changes
Abmnd,323.15,100.0,952.0,Krolikowska et al. (2021b),Liquid,0.1523,1-(2-hydroxyethyl)-1-methylpyrrolidinium dimethyl phosphate,,,C[N+]1(CCO)CCCC1.COP(=O)([O-])OC,1-(2-hydroxyethyl)-1-methylpyrrolidinium dimethyl phosphate,AAxEby,CCO,ethanol,AAIsrh,C[N+]1(CCO)CCCC1,COP(=O)([O-])OC,2,,,,2476,False,C[N+]1(CCO)CCCC1.COP(=O)([O-])OC,No changes
Abmnd,323.15,100.0,995.0,Krolikowska et al. (2021b),Liquid,0.2079,1-(2-hydroxyethyl)-1-methylpyrrolidinium dimethyl phosphate,,,C[N+]1(CCO)CCCC1.COP(=O)([O-])OC,1-(2-hydroxyethyl)-1-methylpyrrolidinium dimethyl phosphate,AAxEby,CCO,ethanol,AAIsrh,C[N+]1(CCO)CCCC1,COP(=O)([O-])OC,2,,,,2477,False,C[N+]1(CCO)CCCC1.COP(=O)([O-])OC,No changes
Abmnd,323.15,100.0,1024.0,Krolikowska et al. (2021b),Liquid,0.2537,1-(2-hydroxyethyl)-1-methylpyrrolidinium dimethyl phosphate,,,C[N+]1(CCO)CCCC1.COP(=O)([O-])OC,1-(2-hydroxyethyl)-1-methylpyrrolidinium dimethyl phosphate,AAxEby,CCO,ethanol,AAIsrh,C[N+]1(CCO)CCCC1,COP(=O)([O-])OC,2,,,,2478,False,C[N+]1(CCO)CCCC1.COP(=O)([O-])OC,No changes
Abmnd,323.15,100.0,1053.0,Krolikowska et al. (2021b),Liquid,0.3084,1-(2-hydroxyethyl)-1-methylpyrrolidinium dimethyl phosphate,,,C[N+]1(CCO)CCCC1.COP(=O)([O-])OC,1-(2-hydroxyethyl)-1-methylpyrrolidinium dimethyl phosphate,AAxEby,CCO,ethanol,AAIsrh,C[N+]1(CCO)CCCC1,COP(=O)([O-])OC,2,,,,2479,False,C[N+]1(CCO)CCCC1.COP(=O)([O-])OC,No changes
Abmnd,323.15,100.0,1093.0,Krolikowska et al. (2021b),Liquid,0.4033,1-(2-hydroxyethyl)-1-methylpyrrolidinium dimethyl phosphate,,,C[N+]1(CCO)CCCC1.COP(=O)([O-])OC,1-(2-hydroxyethyl)-1-methylpyrrolidinium dimethyl phosphate,AAxEby,CCO,ethanol,AAIsrh,C[N+]1(CCO)CCCC1,COP(=O)([O-])OC,2,,,,2480,False,C[N+]1(CCO)CCCC1.COP(=O)([O-])OC,No changes
Abmnd,323.15,100.0,1127.0,Krolikowska et al. (2021b),Liquid,0.5077,1-(2-hydroxyethyl)-1-methylpyrrolidinium dimethyl phosphate,,,C[N+]1(CCO)CCCC1.COP(=O)([O-])OC,1-(2-hydroxyethyl)-1-methylpyrrolidinium dimethyl phosphate,AAxEby,CCO,ethanol,AAIsrh,C[N+]1(CCO)CCCC1,COP(=O)([O-])OC,2,,,,2481,False,C[N+]1(CCO)CCCC1.COP(=O)([O-])OC,No changes
Abmnd,323.15,100.0,1153.0,Krolikowska et al. (2021b),Liquid,0.6042,1-(2-hydroxyethyl)-1-methylpyrrolidinium dimethyl phosphate,,,C[N+]1(CCO)CCCC1.COP(=O)([O-])OC,1-(2-hydroxyethyl)-1-methylpyrrolidinium dimethyl phosphate,AAxEby,CCO,ethanol,AAIsrh,C[N+]1(CCO)CCCC1,COP(=O)([O-])OC,2,,,,2482,False,C[N+]1(CCO)CCCC1.COP(=O)([O-])OC,No changes
Abmnd,323.15,100.0,1174.0,Krolikowska et al. (2021b),Liquid,0.7053,1-(2-hydroxyethyl)-1-methylpyrrolidinium dimethyl phosphate,,,C[N+]1(CCO)CCCC1.COP(=O)([O-])OC,1-(2-hydroxyethyl)-1-methylpyrrolidinium dimethyl phosphate,AAxEby,CCO,ethanol,AAIsrh,C[N+]1(CCO)CCCC1,COP(=O)([O-])OC,2,,,,2483,False,C[N+]1(CCO)CCCC1.COP(=O)([O-])OC,No changes
Abmnd,323.15,100.0,1192.0,Krolikowska et al. (2021b),Liquid,0.8055,1-(2-hydroxyethyl)-1-methylpyrrolidinium dimethyl phosphate,,,C[N+]1(CCO)CCCC1.COP(=O)([O-])OC,1-(2-hydroxyethyl)-1-methylpyrrolidinium dimethyl phosphate,AAxEby,CCO,ethanol,AAIsrh,C[N+]1(CCO)CCCC1,COP(=O)([O-])OC,2,,,,2484,False,C[N+]1(CCO)CCCC1.COP(=O)([O-])OC,No changes
Abmnd,323.15,100.0,1207.0,Krolikowska et al. (2021b),Liquid,0.9053,1-(2-hydroxyethyl)-1-methylpyrrolidinium dimethyl phosphate,,,C[N+]1(CCO)CCCC1.COP(=O)([O-])OC,1-(2-hydroxyethyl)-1-methylpyrrolidinium dimethyl phosphate,AAxEby,CCO,ethanol,AAIsrh,C[N+]1(CCO)CCCC1,COP(=O)([O-])OC,2,,,,2485,False,C[N+]1(CCO)CCCC1.COP(=O)([O-])OC,No changes
Abmnd,323.15,100.0,1218.0,Krolikowska et al. (2021b),Liquid,1.0,1-(2-hydroxyethyl)-1-methylpyrrolidinium dimethyl phosphate,,,C[N+]1(CCO)CCCC1.COP(=O)([O-])OC,1-(2-hydroxyethyl)-1-methylpyrrolidinium dimethyl phosphate,AAxEby,CCO,ethanol,AAIsrh,C[N+]1(CCO)CCCC1,COP(=O)([O-])OC,2,,,,2486,False,C[N+]1(CCO)CCCC1.COP(=O)([O-])OC,No changes
Abmnd,328.15,100.0,759.0,Krolikowska et al. (2021b),Liquid,0.0,1-(2-hydroxyethyl)-1-methylpyrrolidinium dimethyl phosphate,,,C[N+]1(CCO)CCCC1.COP(=O)([O-])OC,1-(2-hydroxyethyl)-1-methylpyrrolidinium dimethyl phosphate,AAxEby,CCO,ethanol,AAIsrh,C[N+]1(CCO)CCCC1,COP(=O)([O-])OC,2,,,,2487,False,C[N+]1(CCO)CCCC1.COP(=O)([O-])OC,No changes
Abmnd,328.15,100.0,846.0,Krolikowska et al. (2021b),Liquid,0.0561,1-(2-hydroxyethyl)-1-methylpyrrolidinium dimethyl phosphate,,,C[N+]1(CCO)CCCC1.COP(=O)([O-])OC,1-(2-hydroxyethyl)-1-methylpyrrolidinium dimethyl phosphate,AAxEby,CCO,ethanol,AAIsrh,C[N+]1(CCO)CCCC1,COP(=O)([O-])OC,2,,,,2488,False,C[N+]1(CCO)CCCC1.COP(=O)([O-])OC,No changes
Abmnd,328.15,100.0,906.0,Krolikowska et al. (2021b),Liquid,0.1077,1-(2-hydroxyethyl)-1-methylpyrrolidinium dimethyl phosphate,,,C[N+]1(CCO)CCCC1.COP(=O)([O-])OC,1-(2-hydroxyethyl)-1-methylpyrrolidinium dimethyl phosphate,AAxEby,CCO,ethanol,AAIsrh,C[N+]1(CCO)CCCC1,COP(=O)([O-])OC,2,,,,2489,False,C[N+]1(CCO)CCCC1.COP(=O)([O-])OC,No changes