setid,Temperature (K),Pressure (kPa),Density (kg/m3),reference,phases,Mole fraction,Mole fraction of compound name,Weight fraction,Weight fraction of compound name,IL_SMILES,IL_name,IL_ID,Solvent_SMILES,Solvent_name,Solvent_ID,IL_cation_SMILES,IL_anion_SMILES,IL_component_number,Mole fraction of solvent,IL_MW,Solvent_MW,Record_ID,Contains_Metal,Standardized_IL_SMILES,Changes
VBmhv,298.15,101.0,1199.7,Pereiro and Rodriguez (2007b),Liquid,0.8992,1-butyl-3-methylimidazolium methyl sulfate,,,CCCC[n+]1ccn(C)c1.COS(=O)(=O)[O-],1-butyl-3-methylimidazolium methyl sulfate,AAwHNg,CCO,ethanol,AAIsrh,CCCC[n+]1ccn(C)c1,COS(=O)(=O)[O-],2,,,,1825,False,CCCC[n+]1ccn(C)c1.COS(=O)(=O)[O-],No changes
VBmhv,298.15,101.0,1206.1,Pereiro and Rodriguez (2007b),Liquid,0.9498,1-butyl-3-methylimidazolium methyl sulfate,,,CCCC[n+]1ccn(C)c1.COS(=O)(=O)[O-],1-butyl-3-methylimidazolium methyl sulfate,AAwHNg,CCO,ethanol,AAIsrh,CCCC[n+]1ccn(C)c1,COS(=O)(=O)[O-],2,,,,1826,False,CCCC[n+]1ccn(C)c1.COS(=O)(=O)[O-],No changes
VBmhv,298.15,101.0,1212.2,Pereiro and Rodriguez (2007b),Liquid,1.0,1-butyl-3-methylimidazolium methyl sulfate,,,CCCC[n+]1ccn(C)c1.COS(=O)(=O)[O-],1-butyl-3-methylimidazolium methyl sulfate,AAwHNg,CCO,ethanol,AAIsrh,CCCC[n+]1ccn(C)c1,COS(=O)(=O)[O-],2,,,,1827,False,CCCC[n+]1ccn(C)c1.COS(=O)(=O)[O-],No changes
VBmhv,303.15,101.0,780.7,Pereiro and Rodriguez (2007b),Liquid,0.0,1-butyl-3-methylimidazolium methyl sulfate,,,CCCC[n+]1ccn(C)c1.COS(=O)(=O)[O-],1-butyl-3-methylimidazolium methyl sulfate,AAwHNg,CCO,ethanol,AAIsrh,CCCC[n+]1ccn(C)c1,COS(=O)(=O)[O-],2,,,,1828,False,CCCC[n+]1ccn(C)c1.COS(=O)(=O)[O-],No changes
VBmhv,303.15,101.0,852.2,Pereiro and Rodriguez (2007b),Liquid,0.0501,1-butyl-3-methylimidazolium methyl sulfate,,,CCCC[n+]1ccn(C)c1.COS(=O)(=O)[O-],1-butyl-3-methylimidazolium methyl sulfate,AAwHNg,CCO,ethanol,AAIsrh,CCCC[n+]1ccn(C)c1,COS(=O)(=O)[O-],2,,,,1829,False,CCCC[n+]1ccn(C)c1.COS(=O)(=O)[O-],No changes
VBmhv,303.15,101.0,909.0,Pereiro and Rodriguez (2007b),Liquid,0.1015,1-butyl-3-methylimidazolium methyl sulfate,,,CCCC[n+]1ccn(C)c1.COS(=O)(=O)[O-],1-butyl-3-methylimidazolium methyl sulfate,AAwHNg,CCO,ethanol,AAIsrh,CCCC[n+]1ccn(C)c1,COS(=O)(=O)[O-],2,,,,1830,False,CCCC[n+]1ccn(C)c1.COS(=O)(=O)[O-],No changes
VBmhv,303.15,101.0,986.2,Pereiro and Rodriguez (2007b),Liquid,0.1961,1-butyl-3-methylimidazolium methyl sulfate,,,CCCC[n+]1ccn(C)c1.COS(=O)(=O)[O-],1-butyl-3-methylimidazolium methyl sulfate,AAwHNg,CCO,ethanol,AAIsrh,CCCC[n+]1ccn(C)c1,COS(=O)(=O)[O-],2,,,,1831,False,CCCC[n+]1ccn(C)c1.COS(=O)(=O)[O-],No changes
VBmhv,303.15,101.0,1044.9,Pereiro and Rodriguez (2007b),Liquid,0.299,1-butyl-3-methylimidazolium methyl sulfate,,,CCCC[n+]1ccn(C)c1.COS(=O)(=O)[O-],1-butyl-3-methylimidazolium methyl sulfate,AAwHNg,CCO,ethanol,AAIsrh,CCCC[n+]1ccn(C)c1,COS(=O)(=O)[O-],2,,,,1832,False,CCCC[n+]1ccn(C)c1.COS(=O)(=O)[O-],No changes
VBmhv,303.15,101.0,1084.1,Pereiro and Rodriguez (2007b),Liquid,0.3914,1-butyl-3-methylimidazolium methyl sulfate,,,CCCC[n+]1ccn(C)c1.COS(=O)(=O)[O-],1-butyl-3-methylimidazolium methyl sulfate,AAwHNg,CCO,ethanol,AAIsrh,CCCC[n+]1ccn(C)c1,COS(=O)(=O)[O-],2,,,,1833,False,CCCC[n+]1ccn(C)c1.COS(=O)(=O)[O-],No changes
VBmhv,303.15,101.0,1120.1,Pereiro and Rodriguez (2007b),Liquid,0.5025,1-butyl-3-methylimidazolium methyl sulfate,,,CCCC[n+]1ccn(C)c1.COS(=O)(=O)[O-],1-butyl-3-methylimidazolium methyl sulfate,AAwHNg,CCO,ethanol,AAIsrh,CCCC[n+]1ccn(C)c1,COS(=O)(=O)[O-],2,,,,1834,False,CCCC[n+]1ccn(C)c1.COS(=O)(=O)[O-],No changes
VBmhv,303.15,101.0,1146.5,Pereiro and Rodriguez (2007b),Liquid,0.6073,1-butyl-3-methylimidazolium methyl sulfate,,,CCCC[n+]1ccn(C)c1.COS(=O)(=O)[O-],1-butyl-3-methylimidazolium methyl sulfate,AAwHNg,CCO,ethanol,AAIsrh,CCCC[n+]1ccn(C)c1,COS(=O)(=O)[O-],2,,,,1835,False,CCCC[n+]1ccn(C)c1.COS(=O)(=O)[O-],No changes
VBmhv,303.15,101.0,1165.0,Pereiro and Rodriguez (2007b),Liquid,0.6982,1-butyl-3-methylimidazolium methyl sulfate,,,CCCC[n+]1ccn(C)c1.COS(=O)(=O)[O-],1-butyl-3-methylimidazolium methyl sulfate,AAwHNg,CCO,ethanol,AAIsrh,CCCC[n+]1ccn(C)c1,COS(=O)(=O)[O-],2,,,,1836,False,CCCC[n+]1ccn(C)c1.COS(=O)(=O)[O-],No changes
VBmhv,303.15,101.0,1182.2,Pereiro and Rodriguez (2007b),Liquid,0.8002,1-butyl-3-methylimidazolium methyl sulfate,,,CCCC[n+]1ccn(C)c1.COS(=O)(=O)[O-],1-butyl-3-methylimidazolium methyl sulfate,AAwHNg,CCO,ethanol,AAIsrh,CCCC[n+]1ccn(C)c1,COS(=O)(=O)[O-],2,,,,1837,False,CCCC[n+]1ccn(C)c1.COS(=O)(=O)[O-],No changes
VBmhv,303.15,101.0,1196.3,Pereiro and Rodriguez (2007b),Liquid,0.8992,1-butyl-3-methylimidazolium methyl sulfate,,,CCCC[n+]1ccn(C)c1.COS(=O)(=O)[O-],1-butyl-3-methylimidazolium methyl sulfate,AAwHNg,CCO,ethanol,AAIsrh,CCCC[n+]1ccn(C)c1,COS(=O)(=O)[O-],2,,,,1838,False,CCCC[n+]1ccn(C)c1.COS(=O)(=O)[O-],No changes
VBmhv,303.15,101.0,1202.7,Pereiro and Rodriguez (2007b),Liquid,0.9498,1-butyl-3-methylimidazolium methyl sulfate,,,CCCC[n+]1ccn(C)c1.COS(=O)(=O)[O-],1-butyl-3-methylimidazolium methyl sulfate,AAwHNg,CCO,ethanol,AAIsrh,CCCC[n+]1ccn(C)c1,COS(=O)(=O)[O-],2,,,,1839,False,CCCC[n+]1ccn(C)c1.COS(=O)(=O)[O-],No changes
VBmhv,303.15,101.0,1208.8,Pereiro and Rodriguez (2007b),Liquid,1.0,1-butyl-3-methylimidazolium methyl sulfate,,,CCCC[n+]1ccn(C)c1.COS(=O)(=O)[O-],1-butyl-3-methylimidazolium methyl sulfate,AAwHNg,CCO,ethanol,AAIsrh,CCCC[n+]1ccn(C)c1,COS(=O)(=O)[O-],2,,,,1840,False,CCCC[n+]1ccn(C)c1.COS(=O)(=O)[O-],No changes
miYMW,298.15,100.0,786.9,Fatima et al. (2021),Liquid,0.0,1-ethyl-3-methylimidazolium dicyanamide,,,CC[n+]1ccn(C)c1.N#C[N-]C#N,1-ethyl-3-methylimidazolium dicyanamide,AAiEIE,CCO,ethanol,AAIsrh,CC[n+]1ccn(C)c1,N#C[N-]C#N,2,,,,1841,False,CC[n+]1ccn(C)c1.N#C[N-]C#N,No changes
miYMW,298.15,100.0,875.7,Fatima et al. (2021),Liquid,0.0997,1-ethyl-3-methylimidazolium dicyanamide,,,CC[n+]1ccn(C)c1.N#C[N-]C#N,1-ethyl-3-methylimidazolium dicyanamide,AAiEIE,CCO,ethanol,AAIsrh,CC[n+]1ccn(C)c1,N#C[N-]C#N,2,,,,1842,False,CC[n+]1ccn(C)c1.N#C[N-]C#N,No changes
miYMW,298.15,100.0,933.1,Fatima et al. (2021),Liquid,0.196,1-ethyl-3-methylimidazolium dicyanamide,,,CC[n+]1ccn(C)c1.N#C[N-]C#N,1-ethyl-3-methylimidazolium dicyanamide,AAiEIE,CCO,ethanol,AAIsrh,CC[n+]1ccn(C)c1,N#C[N-]C#N,2,,,,1843,False,CC[n+]1ccn(C)c1.N#C[N-]C#N,No changes
miYMW,298.15,100.0,976.4,Fatima et al. (2021),Liquid,0.3001,1-ethyl-3-methylimidazolium dicyanamide,,,CC[n+]1ccn(C)c1.N#C[N-]C#N,1-ethyl-3-methylimidazolium dicyanamide,AAiEIE,CCO,ethanol,AAIsrh,CC[n+]1ccn(C)c1,N#C[N-]C#N,2,,,,1844,False,CC[n+]1ccn(C)c1.N#C[N-]C#N,No changes
miYMW,298.15,100.0,1005.0,Fatima et al. (2021),Liquid,0.3945,1-ethyl-3-methylimidazolium dicyanamide,,,CC[n+]1ccn(C)c1.N#C[N-]C#N,1-ethyl-3-methylimidazolium dicyanamide,AAiEIE,CCO,ethanol,AAIsrh,CC[n+]1ccn(C)c1,N#C[N-]C#N,2,,,,1845,False,CC[n+]1ccn(C)c1.N#C[N-]C#N,No changes
miYMW,298.15,100.0,1029.7,Fatima et al. (2021),Liquid,0.4997,1-ethyl-3-methylimidazolium dicyanamide,,,CC[n+]1ccn(C)c1.N#C[N-]C#N,1-ethyl-3-methylimidazolium dicyanamide,AAiEIE,CCO,ethanol,AAIsrh,CC[n+]1ccn(C)c1,N#C[N-]C#N,2,,,,1846,False,CC[n+]1ccn(C)c1.N#C[N-]C#N,No changes
miYMW,298.15,100.0,1048.7,Fatima et al. (2021),Liquid,0.5993,1-ethyl-3-methylimidazolium dicyanamide,,,CC[n+]1ccn(C)c1.N#C[N-]C#N,1-ethyl-3-methylimidazolium dicyanamide,AAiEIE,CCO,ethanol,AAIsrh,CC[n+]1ccn(C)c1,N#C[N-]C#N,2,,,,1847,False,CC[n+]1ccn(C)c1.N#C[N-]C#N,No changes
miYMW,298.15,100.0,1065.2,Fatima et al. (2021),Liquid,0.7013,1-ethyl-3-methylimidazolium dicyanamide,,,CC[n+]1ccn(C)c1.N#C[N-]C#N,1-ethyl-3-methylimidazolium dicyanamide,AAiEIE,CCO,ethanol,AAIsrh,CC[n+]1ccn(C)c1,N#C[N-]C#N,2,,,,1848,False,CC[n+]1ccn(C)c1.N#C[N-]C#N,No changes
miYMW,298.15,100.0,1079.2,Fatima et al. (2021),Liquid,0.8014,1-ethyl-3-methylimidazolium dicyanamide,,,CC[n+]1ccn(C)c1.N#C[N-]C#N,1-ethyl-3-methylimidazolium dicyanamide,AAiEIE,CCO,ethanol,AAIsrh,CC[n+]1ccn(C)c1,N#C[N-]C#N,2,,,,1849,False,CC[n+]1ccn(C)c1.N#C[N-]C#N,No changes
miYMW,298.15,100.0,1090.1,Fatima et al. (2021),Liquid,0.8929,1-ethyl-3-methylimidazolium dicyanamide,,,CC[n+]1ccn(C)c1.N#C[N-]C#N,1-ethyl-3-methylimidazolium dicyanamide,AAiEIE,CCO,ethanol,AAIsrh,CC[n+]1ccn(C)c1,N#C[N-]C#N,2,,,,1850,False,CC[n+]1ccn(C)c1.N#C[N-]C#N,No changes
miYMW,298.15,100.0,1100.7,Fatima et al. (2021),Liquid,1.0,1-ethyl-3-methylimidazolium dicyanamide,,,CC[n+]1ccn(C)c1.N#C[N-]C#N,1-ethyl-3-methylimidazolium dicyanamide,AAiEIE,CCO,ethanol,AAIsrh,CC[n+]1ccn(C)c1,N#C[N-]C#N,2,,,,1851,False,CC[n+]1ccn(C)c1.N#C[N-]C#N,No changes
miYMW,303.15,100.0,782.6,Fatima et al. (2021),Liquid,0.0,1-ethyl-3-methylimidazolium dicyanamide,,,CC[n+]1ccn(C)c1.N#C[N-]C#N,1-ethyl-3-methylimidazolium dicyanamide,AAiEIE,CCO,ethanol,AAIsrh,CC[n+]1ccn(C)c1,N#C[N-]C#N,2,,,,1852,False,CC[n+]1ccn(C)c1.N#C[N-]C#N,No changes
miYMW,303.15,100.0,871.6,Fatima et al. (2021),Liquid,0.0997,1-ethyl-3-methylimidazolium dicyanamide,,,CC[n+]1ccn(C)c1.N#C[N-]C#N,1-ethyl-3-methylimidazolium dicyanamide,AAiEIE,CCO,ethanol,AAIsrh,CC[n+]1ccn(C)c1,N#C[N-]C#N,2,,,,1853,False,CC[n+]1ccn(C)c1.N#C[N-]C#N,No changes
miYMW,303.15,100.0,929.2,Fatima et al. (2021),Liquid,0.196,1-ethyl-3-methylimidazolium dicyanamide,,,CC[n+]1ccn(C)c1.N#C[N-]C#N,1-ethyl-3-methylimidazolium dicyanamide,AAiEIE,CCO,ethanol,AAIsrh,CC[n+]1ccn(C)c1,N#C[N-]C#N,2,,,,1854,False,CC[n+]1ccn(C)c1.N#C[N-]C#N,No changes
miYMW,303.15,100.0,972.5,Fatima et al. (2021),Liquid,0.3001,1-ethyl-3-methylimidazolium dicyanamide,,,CC[n+]1ccn(C)c1.N#C[N-]C#N,1-ethyl-3-methylimidazolium dicyanamide,AAiEIE,CCO,ethanol,AAIsrh,CC[n+]1ccn(C)c1,N#C[N-]C#N,2,,,,1855,False,CC[n+]1ccn(C)c1.N#C[N-]C#N,No changes
miYMW,303.15,100.0,1001.3,Fatima et al. (2021),Liquid,0.3945,1-ethyl-3-methylimidazolium dicyanamide,,,CC[n+]1ccn(C)c1.N#C[N-]C#N,1-ethyl-3-methylimidazolium dicyanamide,AAiEIE,CCO,ethanol,AAIsrh,CC[n+]1ccn(C)c1,N#C[N-]C#N,2,,,,1856,False,CC[n+]1ccn(C)c1.N#C[N-]C#N,No changes
miYMW,303.15,100.0,1026.1,Fatima et al. (2021),Liquid,0.4997,1-ethyl-3-methylimidazolium dicyanamide,,,CC[n+]1ccn(C)c1.N#C[N-]C#N,1-ethyl-3-methylimidazolium dicyanamide,AAiEIE,CCO,ethanol,AAIsrh,CC[n+]1ccn(C)c1,N#C[N-]C#N,2,,,,1857,False,CC[n+]1ccn(C)c1.N#C[N-]C#N,No changes
miYMW,303.15,100.0,1045.3,Fatima et al. (2021),Liquid,0.5993,1-ethyl-3-methylimidazolium dicyanamide,,,CC[n+]1ccn(C)c1.N#C[N-]C#N,1-ethyl-3-methylimidazolium dicyanamide,AAiEIE,CCO,ethanol,AAIsrh,CC[n+]1ccn(C)c1,N#C[N-]C#N,2,,,,1858,False,CC[n+]1ccn(C)c1.N#C[N-]C#N,No changes
miYMW,303.15,100.0,1061.8,Fatima et al. (2021),Liquid,0.7013,1-ethyl-3-methylimidazolium dicyanamide,,,CC[n+]1ccn(C)c1.N#C[N-]C#N,1-ethyl-3-methylimidazolium dicyanamide,AAiEIE,CCO,ethanol,AAIsrh,CC[n+]1ccn(C)c1,N#C[N-]C#N,2,,,,1859,False,CC[n+]1ccn(C)c1.N#C[N-]C#N,No changes
miYMW,303.15,100.0,1075.9,Fatima et al. (2021),Liquid,0.8014,1-ethyl-3-methylimidazolium dicyanamide,,,CC[n+]1ccn(C)c1.N#C[N-]C#N,1-ethyl-3-methylimidazolium dicyanamide,AAiEIE,CCO,ethanol,AAIsrh,CC[n+]1ccn(C)c1,N#C[N-]C#N,2,,,,1860,False,CC[n+]1ccn(C)c1.N#C[N-]C#N,No changes
miYMW,303.15,100.0,1086.9,Fatima et al. (2021),Liquid,0.8929,1-ethyl-3-methylimidazolium dicyanamide,,,CC[n+]1ccn(C)c1.N#C[N-]C#N,1-ethyl-3-methylimidazolium dicyanamide,AAiEIE,CCO,ethanol,AAIsrh,CC[n+]1ccn(C)c1,N#C[N-]C#N,2,,,,1861,False,CC[n+]1ccn(C)c1.N#C[N-]C#N,No changes
miYMW,303.15,100.0,1097.4,Fatima et al. (2021),Liquid,1.0,1-ethyl-3-methylimidazolium dicyanamide,,,CC[n+]1ccn(C)c1.N#C[N-]C#N,1-ethyl-3-methylimidazolium dicyanamide,AAiEIE,CCO,ethanol,AAIsrh,CC[n+]1ccn(C)c1,N#C[N-]C#N,2,,,,1862,False,CC[n+]1ccn(C)c1.N#C[N-]C#N,No changes
miYMW,308.15,100.0,778.2,Fatima et al. (2021),Liquid,0.0,1-ethyl-3-methylimidazolium dicyanamide,,,CC[n+]1ccn(C)c1.N#C[N-]C#N,1-ethyl-3-methylimidazolium dicyanamide,AAiEIE,CCO,ethanol,AAIsrh,CC[n+]1ccn(C)c1,N#C[N-]C#N,2,,,,1863,False,CC[n+]1ccn(C)c1.N#C[N-]C#N,No changes
miYMW,308.15,100.0,867.4,Fatima et al. (2021),Liquid,0.0997,1-ethyl-3-methylimidazolium dicyanamide,,,CC[n+]1ccn(C)c1.N#C[N-]C#N,1-ethyl-3-methylimidazolium dicyanamide,AAiEIE,CCO,ethanol,AAIsrh,CC[n+]1ccn(C)c1,N#C[N-]C#N,2,,,,1864,False,CC[n+]1ccn(C)c1.N#C[N-]C#N,No changes
miYMW,308.15,100.0,925.0,Fatima et al. (2021),Liquid,0.196,1-ethyl-3-methylimidazolium dicyanamide,,,CC[n+]1ccn(C)c1.N#C[N-]C#N,1-ethyl-3-methylimidazolium dicyanamide,AAiEIE,CCO,ethanol,AAIsrh,CC[n+]1ccn(C)c1,N#C[N-]C#N,2,,,,1865,False,CC[n+]1ccn(C)c1.N#C[N-]C#N,No changes
miYMW,308.15,100.0,968.6,Fatima et al. (2021),Liquid,0.3001,1-ethyl-3-methylimidazolium dicyanamide,,,CC[n+]1ccn(C)c1.N#C[N-]C#N,1-ethyl-3-methylimidazolium dicyanamide,AAiEIE,CCO,ethanol,AAIsrh,CC[n+]1ccn(C)c1,N#C[N-]C#N,2,,,,1866,False,CC[n+]1ccn(C)c1.N#C[N-]C#N,No changes
miYMW,308.15,100.0,997.6,Fatima et al. (2021),Liquid,0.3945,1-ethyl-3-methylimidazolium dicyanamide,,,CC[n+]1ccn(C)c1.N#C[N-]C#N,1-ethyl-3-methylimidazolium dicyanamide,AAiEIE,CCO,ethanol,AAIsrh,CC[n+]1ccn(C)c1,N#C[N-]C#N,2,,,,1867,False,CC[n+]1ccn(C)c1.N#C[N-]C#N,No changes
miYMW,308.15,100.0,1022.4,Fatima et al. (2021),Liquid,0.4997,1-ethyl-3-methylimidazolium dicyanamide,,,CC[n+]1ccn(C)c1.N#C[N-]C#N,1-ethyl-3-methylimidazolium dicyanamide,AAiEIE,CCO,ethanol,AAIsrh,CC[n+]1ccn(C)c1,N#C[N-]C#N,2,,,,1868,False,CC[n+]1ccn(C)c1.N#C[N-]C#N,No changes
miYMW,308.15,100.0,1041.7,Fatima et al. (2021),Liquid,0.5993,1-ethyl-3-methylimidazolium dicyanamide,,,CC[n+]1ccn(C)c1.N#C[N-]C#N,1-ethyl-3-methylimidazolium dicyanamide,AAiEIE,CCO,ethanol,AAIsrh,CC[n+]1ccn(C)c1,N#C[N-]C#N,2,,,,1869,False,CC[n+]1ccn(C)c1.N#C[N-]C#N,No changes
miYMW,308.15,100.0,1058.4,Fatima et al. (2021),Liquid,0.7013,1-ethyl-3-methylimidazolium dicyanamide,,,CC[n+]1ccn(C)c1.N#C[N-]C#N,1-ethyl-3-methylimidazolium dicyanamide,AAiEIE,CCO,ethanol,AAIsrh,CC[n+]1ccn(C)c1,N#C[N-]C#N,2,,,,1870,False,CC[n+]1ccn(C)c1.N#C[N-]C#N,No changes
miYMW,308.15,100.0,1072.6,Fatima et al. (2021),Liquid,0.8014,1-ethyl-3-methylimidazolium dicyanamide,,,CC[n+]1ccn(C)c1.N#C[N-]C#N,1-ethyl-3-methylimidazolium dicyanamide,AAiEIE,CCO,ethanol,AAIsrh,CC[n+]1ccn(C)c1,N#C[N-]C#N,2,,,,1871,False,CC[n+]1ccn(C)c1.N#C[N-]C#N,No changes
miYMW,308.15,100.0,1083.7,Fatima et al. (2021),Liquid,0.8929,1-ethyl-3-methylimidazolium dicyanamide,,,CC[n+]1ccn(C)c1.N#C[N-]C#N,1-ethyl-3-methylimidazolium dicyanamide,AAiEIE,CCO,ethanol,AAIsrh,CC[n+]1ccn(C)c1,N#C[N-]C#N,2,,,,1872,False,CC[n+]1ccn(C)c1.N#C[N-]C#N,No changes
miYMW,308.15,100.0,1094.1,Fatima et al. (2021),Liquid,1.0,1-ethyl-3-methylimidazolium dicyanamide,,,CC[n+]1ccn(C)c1.N#C[N-]C#N,1-ethyl-3-methylimidazolium dicyanamide,AAiEIE,CCO,ethanol,AAIsrh,CC[n+]1ccn(C)c1,N#C[N-]C#N,2,,,,1873,False,CC[n+]1ccn(C)c1.N#C[N-]C#N,No changes
miYMW,313.15,100.0,773.8,Fatima et al. (2021),Liquid,0.0,1-ethyl-3-methylimidazolium dicyanamide,,,CC[n+]1ccn(C)c1.N#C[N-]C#N,1-ethyl-3-methylimidazolium dicyanamide,AAiEIE,CCO,ethanol,AAIsrh,CC[n+]1ccn(C)c1,N#C[N-]C#N,2,,,,1874,False,CC[n+]1ccn(C)c1.N#C[N-]C#N,No changes
miYMW,313.15,100.0,863.3,Fatima et al. (2021),Liquid,0.0997,1-ethyl-3-methylimidazolium dicyanamide,,,CC[n+]1ccn(C)c1.N#C[N-]C#N,1-ethyl-3-methylimidazolium dicyanamide,AAiEIE,CCO,ethanol,AAIsrh,CC[n+]1ccn(C)c1,N#C[N-]C#N,2,,,,1875,False,CC[n+]1ccn(C)c1.N#C[N-]C#N,No changes
miYMW,313.15,100.0,921.0,Fatima et al. (2021),Liquid,0.196,1-ethyl-3-methylimidazolium dicyanamide,,,CC[n+]1ccn(C)c1.N#C[N-]C#N,1-ethyl-3-methylimidazolium dicyanamide,AAiEIE,CCO,ethanol,AAIsrh,CC[n+]1ccn(C)c1,N#C[N-]C#N,2,,,,1876,False,CC[n+]1ccn(C)c1.N#C[N-]C#N,No changes
miYMW,313.15,100.0,964.6,Fatima et al. (2021),Liquid,0.3001,1-ethyl-3-methylimidazolium dicyanamide,,,CC[n+]1ccn(C)c1.N#C[N-]C#N,1-ethyl-3-methylimidazolium dicyanamide,AAiEIE,CCO,ethanol,AAIsrh,CC[n+]1ccn(C)c1,N#C[N-]C#N,2,,,,1877,False,CC[n+]1ccn(C)c1.N#C[N-]C#N,No changes
miYMW,313.15,100.0,993.7,Fatima et al. (2021),Liquid,0.3945,1-ethyl-3-methylimidazolium dicyanamide,,,CC[n+]1ccn(C)c1.N#C[N-]C#N,1-ethyl-3-methylimidazolium dicyanamide,AAiEIE,CCO,ethanol,AAIsrh,CC[n+]1ccn(C)c1,N#C[N-]C#N,2,,,,1878,False,CC[n+]1ccn(C)c1.N#C[N-]C#N,No changes
miYMW,313.15,100.0,1018.8,Fatima et al. (2021),Liquid,0.4997,1-ethyl-3-methylimidazolium dicyanamide,,,CC[n+]1ccn(C)c1.N#C[N-]C#N,1-ethyl-3-methylimidazolium dicyanamide,AAiEIE,CCO,ethanol,AAIsrh,CC[n+]1ccn(C)c1,N#C[N-]C#N,2,,,,1879,False,CC[n+]1ccn(C)c1.N#C[N-]C#N,No changes
miYMW,313.15,100.0,1038.2,Fatima et al. (2021),Liquid,0.5993,1-ethyl-3-methylimidazolium dicyanamide,,,CC[n+]1ccn(C)c1.N#C[N-]C#N,1-ethyl-3-methylimidazolium dicyanamide,AAiEIE,CCO,ethanol,AAIsrh,CC[n+]1ccn(C)c1,N#C[N-]C#N,2,,,,1880,False,CC[n+]1ccn(C)c1.N#C[N-]C#N,No changes
miYMW,313.15,100.0,1055.0,Fatima et al. (2021),Liquid,0.7013,1-ethyl-3-methylimidazolium dicyanamide,,,CC[n+]1ccn(C)c1.N#C[N-]C#N,1-ethyl-3-methylimidazolium dicyanamide,AAiEIE,CCO,ethanol,AAIsrh,CC[n+]1ccn(C)c1,N#C[N-]C#N,2,,,,1881,False,CC[n+]1ccn(C)c1.N#C[N-]C#N,No changes
miYMW,313.15,100.0,1069.3,Fatima et al. (2021),Liquid,0.8014,1-ethyl-3-methylimidazolium dicyanamide,,,CC[n+]1ccn(C)c1.N#C[N-]C#N,1-ethyl-3-methylimidazolium dicyanamide,AAiEIE,CCO,ethanol,AAIsrh,CC[n+]1ccn(C)c1,N#C[N-]C#N,2,,,,1882,False,CC[n+]1ccn(C)c1.N#C[N-]C#N,No changes
miYMW,313.15,100.0,1080.5,Fatima et al. (2021),Liquid,0.8929,1-ethyl-3-methylimidazolium dicyanamide,,,CC[n+]1ccn(C)c1.N#C[N-]C#N,1-ethyl-3-methylimidazolium dicyanamide,AAiEIE,CCO,ethanol,AAIsrh,CC[n+]1ccn(C)c1,N#C[N-]C#N,2,,,,1883,False,CC[n+]1ccn(C)c1.N#C[N-]C#N,No changes
miYMW,313.15,100.0,1090.8,Fatima et al. (2021),Liquid,1.0,1-ethyl-3-methylimidazolium dicyanamide,,,CC[n+]1ccn(C)c1.N#C[N-]C#N,1-ethyl-3-methylimidazolium dicyanamide,AAiEIE,CCO,ethanol,AAIsrh,CC[n+]1ccn(C)c1,N#C[N-]C#N,2,,,,1884,False,CC[n+]1ccn(C)c1.N#C[N-]C#N,No changes
miYMW,318.15,100.0,769.4,Fatima et al. (2021),Liquid,0.0,1-ethyl-3-methylimidazolium dicyanamide,,,CC[n+]1ccn(C)c1.N#C[N-]C#N,1-ethyl-3-methylimidazolium dicyanamide,AAiEIE,CCO,ethanol,AAIsrh,CC[n+]1ccn(C)c1,N#C[N-]C#N,2,,,,1885,False,CC[n+]1ccn(C)c1.N#C[N-]C#N,No changes
miYMW,318.15,100.0,859.0,Fatima et al. (2021),Liquid,0.0997,1-ethyl-3-methylimidazolium dicyanamide,,,CC[n+]1ccn(C)c1.N#C[N-]C#N,1-ethyl-3-methylimidazolium dicyanamide,AAiEIE,CCO,ethanol,AAIsrh,CC[n+]1ccn(C)c1,N#C[N-]C#N,2,,,,1886,False,CC[n+]1ccn(C)c1.N#C[N-]C#N,No changes
miYMW,318.15,100.0,916.8,Fatima et al. (2021),Liquid,0.196,1-ethyl-3-methylimidazolium dicyanamide,,,CC[n+]1ccn(C)c1.N#C[N-]C#N,1-ethyl-3-methylimidazolium dicyanamide,AAiEIE,CCO,ethanol,AAIsrh,CC[n+]1ccn(C)c1,N#C[N-]C#N,2,,,,1887,False,CC[n+]1ccn(C)c1.N#C[N-]C#N,No changes
miYMW,318.15,100.0,960.6,Fatima et al. (2021),Liquid,0.3001,1-ethyl-3-methylimidazolium dicyanamide,,,CC[n+]1ccn(C)c1.N#C[N-]C#N,1-ethyl-3-methylimidazolium dicyanamide,AAiEIE,CCO,ethanol,AAIsrh,CC[n+]1ccn(C)c1,N#C[N-]C#N,2,,,,1888,False,CC[n+]1ccn(C)c1.N#C[N-]C#N,No changes
miYMW,318.15,100.0,989.9,Fatima et al. (2021),Liquid,0.3945,1-ethyl-3-methylimidazolium dicyanamide,,,CC[n+]1ccn(C)c1.N#C[N-]C#N,1-ethyl-3-methylimidazolium dicyanamide,AAiEIE,CCO,ethanol,AAIsrh,CC[n+]1ccn(C)c1,N#C[N-]C#N,2,,,,1889,False,CC[n+]1ccn(C)c1.N#C[N-]C#N,No changes
miYMW,318.15,100.0,1015.2,Fatima et al. (2021),Liquid,0.4997,1-ethyl-3-methylimidazolium dicyanamide,,,CC[n+]1ccn(C)c1.N#C[N-]C#N,1-ethyl-3-methylimidazolium dicyanamide,AAiEIE,CCO,ethanol,AAIsrh,CC[n+]1ccn(C)c1,N#C[N-]C#N,2,,,,1890,False,CC[n+]1ccn(C)c1.N#C[N-]C#N,No changes
miYMW,318.15,100.0,1034.7,Fatima et al. (2021),Liquid,0.5993,1-ethyl-3-methylimidazolium dicyanamide,,,CC[n+]1ccn(C)c1.N#C[N-]C#N,1-ethyl-3-methylimidazolium dicyanamide,AAiEIE,CCO,ethanol,AAIsrh,CC[n+]1ccn(C)c1,N#C[N-]C#N,2,,,,1891,False,CC[n+]1ccn(C)c1.N#C[N-]C#N,No changes
miYMW,318.15,100.0,1051.6,Fatima et al. (2021),Liquid,0.7013,1-ethyl-3-methylimidazolium dicyanamide,,,CC[n+]1ccn(C)c1.N#C[N-]C#N,1-ethyl-3-methylimidazolium dicyanamide,AAiEIE,CCO,ethanol,AAIsrh,CC[n+]1ccn(C)c1,N#C[N-]C#N,2,,,,1892,False,CC[n+]1ccn(C)c1.N#C[N-]C#N,No changes
miYMW,318.15,100.0,1065.9,Fatima et al. (2021),Liquid,0.8014,1-ethyl-3-methylimidazolium dicyanamide,,,CC[n+]1ccn(C)c1.N#C[N-]C#N,1-ethyl-3-methylimidazolium dicyanamide,AAiEIE,CCO,ethanol,AAIsrh,CC[n+]1ccn(C)c1,N#C[N-]C#N,2,,,,1893,False,CC[n+]1ccn(C)c1.N#C[N-]C#N,No changes