setid,Temperature (K),Pressure (kPa),Density (kg/m3),reference,phases,Mole fraction,Mole fraction of compound name,Weight fraction,Weight fraction of compound name,IL_SMILES,IL_name,IL_ID,Solvent_SMILES,Solvent_name,Solvent_ID,IL_cation_SMILES,IL_anion_SMILES,IL_component_number,Mole fraction of solvent,IL_MW,Solvent_MW,Record_ID,Contains_Metal,Standardized_IL_SMILES,Changes
ZVmrr,308.15,100.0,1104.5,Rameshi et al. (2020),Liquid,0.9396,1-hexyl-3-methylimidazolium nitrate,,,CCCCCC[n+]1ccn(C)c1.O=[N+]([O-])[O-],1-hexyl-3-methylimidazolium nitrate,AAsErb,CC(C)O,propan-2-ol,AALcwx,CCCCCC[n+]1ccn(C)c1,O=[N+]([O-])[O-],2,,,,168,False,CCCCCC[n+]1ccn(C)c1.O=[N+]([O-])[O-],No changes
ZVmrr,308.15,100.0,1111.1,Rameshi et al. (2020),Liquid,1.0,1-hexyl-3-methylimidazolium nitrate,,,CCCCCC[n+]1ccn(C)c1.O=[N+]([O-])[O-],1-hexyl-3-methylimidazolium nitrate,AAsErb,CC(C)O,propan-2-ol,AALcwx,CCCCCC[n+]1ccn(C)c1,O=[N+]([O-])[O-],2,,,,169,False,CCCCCC[n+]1ccn(C)c1.O=[N+]([O-])[O-],No changes
ZVmrr,313.15,100.0,768.0,Rameshi et al. (2020),Liquid,0.0,1-hexyl-3-methylimidazolium nitrate,,,CCCCCC[n+]1ccn(C)c1.O=[N+]([O-])[O-],1-hexyl-3-methylimidazolium nitrate,AAsErb,CC(C)O,propan-2-ol,AALcwx,CCCCCC[n+]1ccn(C)c1,O=[N+]([O-])[O-],2,,,,170,False,CCCCCC[n+]1ccn(C)c1.O=[N+]([O-])[O-],No changes
ZVmrr,313.15,100.0,834.9,Rameshi et al. (2020),Liquid,0.0817,1-hexyl-3-methylimidazolium nitrate,,,CCCCCC[n+]1ccn(C)c1.O=[N+]([O-])[O-],1-hexyl-3-methylimidazolium nitrate,AAsErb,CC(C)O,propan-2-ol,AALcwx,CCCCCC[n+]1ccn(C)c1,O=[N+]([O-])[O-],2,,,,171,False,CCCCCC[n+]1ccn(C)c1.O=[N+]([O-])[O-],No changes
ZVmrr,313.15,100.0,885.4,Rameshi et al. (2020),Liquid,0.1594,1-hexyl-3-methylimidazolium nitrate,,,CCCCCC[n+]1ccn(C)c1.O=[N+]([O-])[O-],1-hexyl-3-methylimidazolium nitrate,AAsErb,CC(C)O,propan-2-ol,AALcwx,CCCCCC[n+]1ccn(C)c1,O=[N+]([O-])[O-],2,,,,172,False,CCCCCC[n+]1ccn(C)c1.O=[N+]([O-])[O-],No changes
ZVmrr,313.15,100.0,927.8,Rameshi et al. (2020),Liquid,0.2402,1-hexyl-3-methylimidazolium nitrate,,,CCCCCC[n+]1ccn(C)c1.O=[N+]([O-])[O-],1-hexyl-3-methylimidazolium nitrate,AAsErb,CC(C)O,propan-2-ol,AALcwx,CCCCCC[n+]1ccn(C)c1,O=[N+]([O-])[O-],2,,,,173,False,CCCCCC[n+]1ccn(C)c1.O=[N+]([O-])[O-],No changes
ZVmrr,313.15,100.0,973.4,Rameshi et al. (2020),Liquid,0.3493,1-hexyl-3-methylimidazolium nitrate,,,CCCCCC[n+]1ccn(C)c1.O=[N+]([O-])[O-],1-hexyl-3-methylimidazolium nitrate,AAsErb,CC(C)O,propan-2-ol,AALcwx,CCCCCC[n+]1ccn(C)c1,O=[N+]([O-])[O-],2,,,,174,False,CCCCCC[n+]1ccn(C)c1.O=[N+]([O-])[O-],No changes
ZVmrr,313.15,100.0,1003.8,Rameshi et al. (2020),Liquid,0.4408,1-hexyl-3-methylimidazolium nitrate,,,CCCCCC[n+]1ccn(C)c1.O=[N+]([O-])[O-],1-hexyl-3-methylimidazolium nitrate,AAsErb,CC(C)O,propan-2-ol,AALcwx,CCCCCC[n+]1ccn(C)c1,O=[N+]([O-])[O-],2,,,,175,False,CCCCCC[n+]1ccn(C)c1.O=[N+]([O-])[O-],No changes
ZVmrr,313.15,100.0,1036.0,Rameshi et al. (2020),Liquid,0.5609,1-hexyl-3-methylimidazolium nitrate,,,CCCCCC[n+]1ccn(C)c1.O=[N+]([O-])[O-],1-hexyl-3-methylimidazolium nitrate,AAsErb,CC(C)O,propan-2-ol,AALcwx,CCCCCC[n+]1ccn(C)c1,O=[N+]([O-])[O-],2,,,,176,False,CCCCCC[n+]1ccn(C)c1.O=[N+]([O-])[O-],No changes
ZVmrr,313.15,100.0,1055.6,Rameshi et al. (2020),Liquid,0.6502,1-hexyl-3-methylimidazolium nitrate,,,CCCCCC[n+]1ccn(C)c1.O=[N+]([O-])[O-],1-hexyl-3-methylimidazolium nitrate,AAsErb,CC(C)O,propan-2-ol,AALcwx,CCCCCC[n+]1ccn(C)c1,O=[N+]([O-])[O-],2,,,,177,False,CCCCCC[n+]1ccn(C)c1.O=[N+]([O-])[O-],No changes
ZVmrr,313.15,100.0,1072.6,Rameshi et al. (2020),Liquid,0.7417,1-hexyl-3-methylimidazolium nitrate,,,CCCCCC[n+]1ccn(C)c1.O=[N+]([O-])[O-],1-hexyl-3-methylimidazolium nitrate,AAsErb,CC(C)O,propan-2-ol,AALcwx,CCCCCC[n+]1ccn(C)c1,O=[N+]([O-])[O-],2,,,,178,False,CCCCCC[n+]1ccn(C)c1.O=[N+]([O-])[O-],No changes
ZVmrr,313.15,100.0,1089.6,Rameshi et al. (2020),Liquid,0.8518,1-hexyl-3-methylimidazolium nitrate,,,CCCCCC[n+]1ccn(C)c1.O=[N+]([O-])[O-],1-hexyl-3-methylimidazolium nitrate,AAsErb,CC(C)O,propan-2-ol,AALcwx,CCCCCC[n+]1ccn(C)c1,O=[N+]([O-])[O-],2,,,,179,False,CCCCCC[n+]1ccn(C)c1.O=[N+]([O-])[O-],No changes
ZVmrr,313.15,100.0,1100.9,Rameshi et al. (2020),Liquid,0.9396,1-hexyl-3-methylimidazolium nitrate,,,CCCCCC[n+]1ccn(C)c1.O=[N+]([O-])[O-],1-hexyl-3-methylimidazolium nitrate,AAsErb,CC(C)O,propan-2-ol,AALcwx,CCCCCC[n+]1ccn(C)c1,O=[N+]([O-])[O-],2,,,,180,False,CCCCCC[n+]1ccn(C)c1.O=[N+]([O-])[O-],No changes
ZVmrr,313.15,100.0,1107.8,Rameshi et al. (2020),Liquid,1.0,1-hexyl-3-methylimidazolium nitrate,,,CCCCCC[n+]1ccn(C)c1.O=[N+]([O-])[O-],1-hexyl-3-methylimidazolium nitrate,AAsErb,CC(C)O,propan-2-ol,AALcwx,CCCCCC[n+]1ccn(C)c1,O=[N+]([O-])[O-],2,,,,181,False,CCCCCC[n+]1ccn(C)c1.O=[N+]([O-])[O-],No changes
ZVmrr,318.15,100.0,763.4,Rameshi et al. (2020),Liquid,0.0,1-hexyl-3-methylimidazolium nitrate,,,CCCCCC[n+]1ccn(C)c1.O=[N+]([O-])[O-],1-hexyl-3-methylimidazolium nitrate,AAsErb,CC(C)O,propan-2-ol,AALcwx,CCCCCC[n+]1ccn(C)c1,O=[N+]([O-])[O-],2,,,,182,False,CCCCCC[n+]1ccn(C)c1.O=[N+]([O-])[O-],No changes
ZVmrr,318.15,100.0,830.1,Rameshi et al. (2020),Liquid,0.0817,1-hexyl-3-methylimidazolium nitrate,,,CCCCCC[n+]1ccn(C)c1.O=[N+]([O-])[O-],1-hexyl-3-methylimidazolium nitrate,AAsErb,CC(C)O,propan-2-ol,AALcwx,CCCCCC[n+]1ccn(C)c1,O=[N+]([O-])[O-],2,,,,183,False,CCCCCC[n+]1ccn(C)c1.O=[N+]([O-])[O-],No changes
ZVmrr,318.15,100.0,880.3,Rameshi et al. (2020),Liquid,0.1594,1-hexyl-3-methylimidazolium nitrate,,,CCCCCC[n+]1ccn(C)c1.O=[N+]([O-])[O-],1-hexyl-3-methylimidazolium nitrate,AAsErb,CC(C)O,propan-2-ol,AALcwx,CCCCCC[n+]1ccn(C)c1,O=[N+]([O-])[O-],2,,,,184,False,CCCCCC[n+]1ccn(C)c1.O=[N+]([O-])[O-],No changes
ZVmrr,318.15,100.0,922.7,Rameshi et al. (2020),Liquid,0.2402,1-hexyl-3-methylimidazolium nitrate,,,CCCCCC[n+]1ccn(C)c1.O=[N+]([O-])[O-],1-hexyl-3-methylimidazolium nitrate,AAsErb,CC(C)O,propan-2-ol,AALcwx,CCCCCC[n+]1ccn(C)c1,O=[N+]([O-])[O-],2,,,,185,False,CCCCCC[n+]1ccn(C)c1.O=[N+]([O-])[O-],No changes
ZVmrr,318.15,100.0,968.3,Rameshi et al. (2020),Liquid,0.3493,1-hexyl-3-methylimidazolium nitrate,,,CCCCCC[n+]1ccn(C)c1.O=[N+]([O-])[O-],1-hexyl-3-methylimidazolium nitrate,AAsErb,CC(C)O,propan-2-ol,AALcwx,CCCCCC[n+]1ccn(C)c1,O=[N+]([O-])[O-],2,,,,186,False,CCCCCC[n+]1ccn(C)c1.O=[N+]([O-])[O-],No changes
ZVmrr,318.15,100.0,998.9,Rameshi et al. (2020),Liquid,0.4408,1-hexyl-3-methylimidazolium nitrate,,,CCCCCC[n+]1ccn(C)c1.O=[N+]([O-])[O-],1-hexyl-3-methylimidazolium nitrate,AAsErb,CC(C)O,propan-2-ol,AALcwx,CCCCCC[n+]1ccn(C)c1,O=[N+]([O-])[O-],2,,,,187,False,CCCCCC[n+]1ccn(C)c1.O=[N+]([O-])[O-],No changes
ZVmrr,318.15,100.0,1031.4,Rameshi et al. (2020),Liquid,0.5609,1-hexyl-3-methylimidazolium nitrate,,,CCCCCC[n+]1ccn(C)c1.O=[N+]([O-])[O-],1-hexyl-3-methylimidazolium nitrate,AAsErb,CC(C)O,propan-2-ol,AALcwx,CCCCCC[n+]1ccn(C)c1,O=[N+]([O-])[O-],2,,,,188,False,CCCCCC[n+]1ccn(C)c1.O=[N+]([O-])[O-],No changes
ZVmrr,318.15,100.0,1051.2,Rameshi et al. (2020),Liquid,0.6502,1-hexyl-3-methylimidazolium nitrate,,,CCCCCC[n+]1ccn(C)c1.O=[N+]([O-])[O-],1-hexyl-3-methylimidazolium nitrate,AAsErb,CC(C)O,propan-2-ol,AALcwx,CCCCCC[n+]1ccn(C)c1,O=[N+]([O-])[O-],2,,,,189,False,CCCCCC[n+]1ccn(C)c1.O=[N+]([O-])[O-],No changes
ZVmrr,318.15,100.0,1068.4,Rameshi et al. (2020),Liquid,0.7417,1-hexyl-3-methylimidazolium nitrate,,,CCCCCC[n+]1ccn(C)c1.O=[N+]([O-])[O-],1-hexyl-3-methylimidazolium nitrate,AAsErb,CC(C)O,propan-2-ol,AALcwx,CCCCCC[n+]1ccn(C)c1,O=[N+]([O-])[O-],2,,,,190,False,CCCCCC[n+]1ccn(C)c1.O=[N+]([O-])[O-],No changes
ZVmrr,318.15,100.0,1085.8,Rameshi et al. (2020),Liquid,0.8518,1-hexyl-3-methylimidazolium nitrate,,,CCCCCC[n+]1ccn(C)c1.O=[N+]([O-])[O-],1-hexyl-3-methylimidazolium nitrate,AAsErb,CC(C)O,propan-2-ol,AALcwx,CCCCCC[n+]1ccn(C)c1,O=[N+]([O-])[O-],2,,,,191,False,CCCCCC[n+]1ccn(C)c1.O=[N+]([O-])[O-],No changes
ZVmrr,318.15,100.0,1097.5,Rameshi et al. (2020),Liquid,0.9396,1-hexyl-3-methylimidazolium nitrate,,,CCCCCC[n+]1ccn(C)c1.O=[N+]([O-])[O-],1-hexyl-3-methylimidazolium nitrate,AAsErb,CC(C)O,propan-2-ol,AALcwx,CCCCCC[n+]1ccn(C)c1,O=[N+]([O-])[O-],2,,,,192,False,CCCCCC[n+]1ccn(C)c1.O=[N+]([O-])[O-],No changes
ZVmrr,318.15,100.0,1104.7,Rameshi et al. (2020),Liquid,1.0,1-hexyl-3-methylimidazolium nitrate,,,CCCCCC[n+]1ccn(C)c1.O=[N+]([O-])[O-],1-hexyl-3-methylimidazolium nitrate,AAsErb,CC(C)O,propan-2-ol,AALcwx,CCCCCC[n+]1ccn(C)c1,O=[N+]([O-])[O-],2,,,,193,False,CCCCCC[n+]1ccn(C)c1.O=[N+]([O-])[O-],No changes
ZVmrr,323.15,100.0,758.8,Rameshi et al. (2020),Liquid,0.0,1-hexyl-3-methylimidazolium nitrate,,,CCCCCC[n+]1ccn(C)c1.O=[N+]([O-])[O-],1-hexyl-3-methylimidazolium nitrate,AAsErb,CC(C)O,propan-2-ol,AALcwx,CCCCCC[n+]1ccn(C)c1,O=[N+]([O-])[O-],2,,,,194,False,CCCCCC[n+]1ccn(C)c1.O=[N+]([O-])[O-],No changes
ZVmrr,323.15,100.0,825.3,Rameshi et al. (2020),Liquid,0.0817,1-hexyl-3-methylimidazolium nitrate,,,CCCCCC[n+]1ccn(C)c1.O=[N+]([O-])[O-],1-hexyl-3-methylimidazolium nitrate,AAsErb,CC(C)O,propan-2-ol,AALcwx,CCCCCC[n+]1ccn(C)c1,O=[N+]([O-])[O-],2,,,,195,False,CCCCCC[n+]1ccn(C)c1.O=[N+]([O-])[O-],No changes
ZVmrr,323.15,100.0,875.5,Rameshi et al. (2020),Liquid,0.1594,1-hexyl-3-methylimidazolium nitrate,,,CCCCCC[n+]1ccn(C)c1.O=[N+]([O-])[O-],1-hexyl-3-methylimidazolium nitrate,AAsErb,CC(C)O,propan-2-ol,AALcwx,CCCCCC[n+]1ccn(C)c1,O=[N+]([O-])[O-],2,,,,196,False,CCCCCC[n+]1ccn(C)c1.O=[N+]([O-])[O-],No changes
ZVmrr,323.15,100.0,917.9,Rameshi et al. (2020),Liquid,0.2402,1-hexyl-3-methylimidazolium nitrate,,,CCCCCC[n+]1ccn(C)c1.O=[N+]([O-])[O-],1-hexyl-3-methylimidazolium nitrate,AAsErb,CC(C)O,propan-2-ol,AALcwx,CCCCCC[n+]1ccn(C)c1,O=[N+]([O-])[O-],2,,,,197,False,CCCCCC[n+]1ccn(C)c1.O=[N+]([O-])[O-],No changes
ZVmrr,323.15,100.0,963.5,Rameshi et al. (2020),Liquid,0.3493,1-hexyl-3-methylimidazolium nitrate,,,CCCCCC[n+]1ccn(C)c1.O=[N+]([O-])[O-],1-hexyl-3-methylimidazolium nitrate,AAsErb,CC(C)O,propan-2-ol,AALcwx,CCCCCC[n+]1ccn(C)c1,O=[N+]([O-])[O-],2,,,,198,False,CCCCCC[n+]1ccn(C)c1.O=[N+]([O-])[O-],No changes
ZVmrr,323.15,100.0,994.3,Rameshi et al. (2020),Liquid,0.4408,1-hexyl-3-methylimidazolium nitrate,,,CCCCCC[n+]1ccn(C)c1.O=[N+]([O-])[O-],1-hexyl-3-methylimidazolium nitrate,AAsErb,CC(C)O,propan-2-ol,AALcwx,CCCCCC[n+]1ccn(C)c1,O=[N+]([O-])[O-],2,,,,199,False,CCCCCC[n+]1ccn(C)c1.O=[N+]([O-])[O-],No changes
ZVmrr,323.15,100.0,1027.0,Rameshi et al. (2020),Liquid,0.5609,1-hexyl-3-methylimidazolium nitrate,,,CCCCCC[n+]1ccn(C)c1.O=[N+]([O-])[O-],1-hexyl-3-methylimidazolium nitrate,AAsErb,CC(C)O,propan-2-ol,AALcwx,CCCCCC[n+]1ccn(C)c1,O=[N+]([O-])[O-],2,,,,200,False,CCCCCC[n+]1ccn(C)c1.O=[N+]([O-])[O-],No changes
ZVmrr,323.15,100.0,1047.1,Rameshi et al. (2020),Liquid,0.6502,1-hexyl-3-methylimidazolium nitrate,,,CCCCCC[n+]1ccn(C)c1.O=[N+]([O-])[O-],1-hexyl-3-methylimidazolium nitrate,AAsErb,CC(C)O,propan-2-ol,AALcwx,CCCCCC[n+]1ccn(C)c1,O=[N+]([O-])[O-],2,,,,201,False,CCCCCC[n+]1ccn(C)c1.O=[N+]([O-])[O-],No changes
ZVmrr,323.15,100.0,1064.4,Rameshi et al. (2020),Liquid,0.7417,1-hexyl-3-methylimidazolium nitrate,,,CCCCCC[n+]1ccn(C)c1.O=[N+]([O-])[O-],1-hexyl-3-methylimidazolium nitrate,AAsErb,CC(C)O,propan-2-ol,AALcwx,CCCCCC[n+]1ccn(C)c1,O=[N+]([O-])[O-],2,,,,202,False,CCCCCC[n+]1ccn(C)c1.O=[N+]([O-])[O-],No changes
ZVmrr,323.15,100.0,1082.1,Rameshi et al. (2020),Liquid,0.8518,1-hexyl-3-methylimidazolium nitrate,,,CCCCCC[n+]1ccn(C)c1.O=[N+]([O-])[O-],1-hexyl-3-methylimidazolium nitrate,AAsErb,CC(C)O,propan-2-ol,AALcwx,CCCCCC[n+]1ccn(C)c1,O=[N+]([O-])[O-],2,,,,203,False,CCCCCC[n+]1ccn(C)c1.O=[N+]([O-])[O-],No changes
ZVmrr,323.15,100.0,1094.2,Rameshi et al. (2020),Liquid,0.9396,1-hexyl-3-methylimidazolium nitrate,,,CCCCCC[n+]1ccn(C)c1.O=[N+]([O-])[O-],1-hexyl-3-methylimidazolium nitrate,AAsErb,CC(C)O,propan-2-ol,AALcwx,CCCCCC[n+]1ccn(C)c1,O=[N+]([O-])[O-],2,,,,204,False,CCCCCC[n+]1ccn(C)c1.O=[N+]([O-])[O-],No changes
ZVmrr,323.15,100.0,1101.6,Rameshi et al. (2020),Liquid,1.0,1-hexyl-3-methylimidazolium nitrate,,,CCCCCC[n+]1ccn(C)c1.O=[N+]([O-])[O-],1-hexyl-3-methylimidazolium nitrate,AAsErb,CC(C)O,propan-2-ol,AALcwx,CCCCCC[n+]1ccn(C)c1,O=[N+]([O-])[O-],2,,,,205,False,CCCCCC[n+]1ccn(C)c1.O=[N+]([O-])[O-],No changes
YqDhU,288.15,100.0,789.2,Fang et al. (2019b),Liquid,0.0,1-ethyl-3-(2-methoxyethyl)imidazolium trifluoromethanesulfonate,,,CC[n+]1ccn(CCOC)c1.O=S(=O)([O-])C(F)(F)F,1-ethyl-3-(2-methoxyethyl)imidazolium trifluoromethanesulfonate,ABGawV,CC(C)O,propan-2-ol,AALcwx,CC[n+]1ccn(CCOC)c1,O=S(=O)([O-])C(F)(F)F,2,,,,206,False,CC[n+]1ccn(CCOC)c1.O=S(=O)([O-])C(F)(F)F,No changes
YqDhU,288.15,100.0,929.2,Fang et al. (2019b),Liquid,0.0997,1-ethyl-3-(2-methoxyethyl)imidazolium trifluoromethanesulfonate,,,CC[n+]1ccn(CCOC)c1.O=S(=O)([O-])C(F)(F)F,1-ethyl-3-(2-methoxyethyl)imidazolium trifluoromethanesulfonate,ABGawV,CC(C)O,propan-2-ol,AALcwx,CC[n+]1ccn(CCOC)c1,O=S(=O)([O-])C(F)(F)F,2,,,,207,False,CC[n+]1ccn(CCOC)c1.O=S(=O)([O-])C(F)(F)F,No changes
YqDhU,288.15,100.0,1030.7,Fang et al. (2019b),Liquid,0.2004,1-ethyl-3-(2-methoxyethyl)imidazolium trifluoromethanesulfonate,,,CC[n+]1ccn(CCOC)c1.O=S(=O)([O-])C(F)(F)F,1-ethyl-3-(2-methoxyethyl)imidazolium trifluoromethanesulfonate,ABGawV,CC(C)O,propan-2-ol,AALcwx,CC[n+]1ccn(CCOC)c1,O=S(=O)([O-])C(F)(F)F,2,,,,208,False,CC[n+]1ccn(CCOC)c1.O=S(=O)([O-])C(F)(F)F,No changes
YqDhU,288.15,100.0,1106.0,Fang et al. (2019b),Liquid,0.3004,1-ethyl-3-(2-methoxyethyl)imidazolium trifluoromethanesulfonate,,,CC[n+]1ccn(CCOC)c1.O=S(=O)([O-])C(F)(F)F,1-ethyl-3-(2-methoxyethyl)imidazolium trifluoromethanesulfonate,ABGawV,CC(C)O,propan-2-ol,AALcwx,CC[n+]1ccn(CCOC)c1,O=S(=O)([O-])C(F)(F)F,2,,,,209,False,CC[n+]1ccn(CCOC)c1.O=S(=O)([O-])C(F)(F)F,No changes
YqDhU,288.15,100.0,1163.8,Fang et al. (2019b),Liquid,0.4003,1-ethyl-3-(2-methoxyethyl)imidazolium trifluoromethanesulfonate,,,CC[n+]1ccn(CCOC)c1.O=S(=O)([O-])C(F)(F)F,1-ethyl-3-(2-methoxyethyl)imidazolium trifluoromethanesulfonate,ABGawV,CC(C)O,propan-2-ol,AALcwx,CC[n+]1ccn(CCOC)c1,O=S(=O)([O-])C(F)(F)F,2,,,,210,False,CC[n+]1ccn(CCOC)c1.O=S(=O)([O-])C(F)(F)F,No changes
YqDhU,288.15,100.0,1210.2,Fang et al. (2019b),Liquid,0.5004,1-ethyl-3-(2-methoxyethyl)imidazolium trifluoromethanesulfonate,,,CC[n+]1ccn(CCOC)c1.O=S(=O)([O-])C(F)(F)F,1-ethyl-3-(2-methoxyethyl)imidazolium trifluoromethanesulfonate,ABGawV,CC(C)O,propan-2-ol,AALcwx,CC[n+]1ccn(CCOC)c1,O=S(=O)([O-])C(F)(F)F,2,,,,211,False,CC[n+]1ccn(CCOC)c1.O=S(=O)([O-])C(F)(F)F,No changes
YqDhU,288.15,100.0,1248.3,Fang et al. (2019b),Liquid,0.6008,1-ethyl-3-(2-methoxyethyl)imidazolium trifluoromethanesulfonate,,,CC[n+]1ccn(CCOC)c1.O=S(=O)([O-])C(F)(F)F,1-ethyl-3-(2-methoxyethyl)imidazolium trifluoromethanesulfonate,ABGawV,CC(C)O,propan-2-ol,AALcwx,CC[n+]1ccn(CCOC)c1,O=S(=O)([O-])C(F)(F)F,2,,,,212,False,CC[n+]1ccn(CCOC)c1.O=S(=O)([O-])C(F)(F)F,No changes
YqDhU,288.15,100.0,1279.5,Fang et al. (2019b),Liquid,0.7,1-ethyl-3-(2-methoxyethyl)imidazolium trifluoromethanesulfonate,,,CC[n+]1ccn(CCOC)c1.O=S(=O)([O-])C(F)(F)F,1-ethyl-3-(2-methoxyethyl)imidazolium trifluoromethanesulfonate,ABGawV,CC(C)O,propan-2-ol,AALcwx,CC[n+]1ccn(CCOC)c1,O=S(=O)([O-])C(F)(F)F,2,,,,213,False,CC[n+]1ccn(CCOC)c1.O=S(=O)([O-])C(F)(F)F,No changes
YqDhU,288.15,100.0,1306.1,Fang et al. (2019b),Liquid,0.7998,1-ethyl-3-(2-methoxyethyl)imidazolium trifluoromethanesulfonate,,,CC[n+]1ccn(CCOC)c1.O=S(=O)([O-])C(F)(F)F,1-ethyl-3-(2-methoxyethyl)imidazolium trifluoromethanesulfonate,ABGawV,CC(C)O,propan-2-ol,AALcwx,CC[n+]1ccn(CCOC)c1,O=S(=O)([O-])C(F)(F)F,2,,,,214,False,CC[n+]1ccn(CCOC)c1.O=S(=O)([O-])C(F)(F)F,No changes
YqDhU,288.15,100.0,1329.3,Fang et al. (2019b),Liquid,0.9003,1-ethyl-3-(2-methoxyethyl)imidazolium trifluoromethanesulfonate,,,CC[n+]1ccn(CCOC)c1.O=S(=O)([O-])C(F)(F)F,1-ethyl-3-(2-methoxyethyl)imidazolium trifluoromethanesulfonate,ABGawV,CC(C)O,propan-2-ol,AALcwx,CC[n+]1ccn(CCOC)c1,O=S(=O)([O-])C(F)(F)F,2,,,,215,False,CC[n+]1ccn(CCOC)c1.O=S(=O)([O-])C(F)(F)F,No changes
YqDhU,288.15,100.0,1348.9,Fang et al. (2019b),Liquid,1.0,1-ethyl-3-(2-methoxyethyl)imidazolium trifluoromethanesulfonate,,,CC[n+]1ccn(CCOC)c1.O=S(=O)([O-])C(F)(F)F,1-ethyl-3-(2-methoxyethyl)imidazolium trifluoromethanesulfonate,ABGawV,CC(C)O,propan-2-ol,AALcwx,CC[n+]1ccn(CCOC)c1,O=S(=O)([O-])C(F)(F)F,2,,,,216,False,CC[n+]1ccn(CCOC)c1.O=S(=O)([O-])C(F)(F)F,No changes
YqDhU,293.15,100.0,785.1,Fang et al. (2019b),Liquid,0.0,1-ethyl-3-(2-methoxyethyl)imidazolium trifluoromethanesulfonate,,,CC[n+]1ccn(CCOC)c1.O=S(=O)([O-])C(F)(F)F,1-ethyl-3-(2-methoxyethyl)imidazolium trifluoromethanesulfonate,ABGawV,CC(C)O,propan-2-ol,AALcwx,CC[n+]1ccn(CCOC)c1,O=S(=O)([O-])C(F)(F)F,2,,,,217,False,CC[n+]1ccn(CCOC)c1.O=S(=O)([O-])C(F)(F)F,No changes
YqDhU,293.15,100.0,925.0,Fang et al. (2019b),Liquid,0.0997,1-ethyl-3-(2-methoxyethyl)imidazolium trifluoromethanesulfonate,,,CC[n+]1ccn(CCOC)c1.O=S(=O)([O-])C(F)(F)F,1-ethyl-3-(2-methoxyethyl)imidazolium trifluoromethanesulfonate,ABGawV,CC(C)O,propan-2-ol,AALcwx,CC[n+]1ccn(CCOC)c1,O=S(=O)([O-])C(F)(F)F,2,,,,218,False,CC[n+]1ccn(CCOC)c1.O=S(=O)([O-])C(F)(F)F,No changes
YqDhU,293.15,100.0,1026.4,Fang et al. (2019b),Liquid,0.2004,1-ethyl-3-(2-methoxyethyl)imidazolium trifluoromethanesulfonate,,,CC[n+]1ccn(CCOC)c1.O=S(=O)([O-])C(F)(F)F,1-ethyl-3-(2-methoxyethyl)imidazolium trifluoromethanesulfonate,ABGawV,CC(C)O,propan-2-ol,AALcwx,CC[n+]1ccn(CCOC)c1,O=S(=O)([O-])C(F)(F)F,2,,,,219,False,CC[n+]1ccn(CCOC)c1.O=S(=O)([O-])C(F)(F)F,No changes
YqDhU,293.15,100.0,1101.7,Fang et al. (2019b),Liquid,0.3004,1-ethyl-3-(2-methoxyethyl)imidazolium trifluoromethanesulfonate,,,CC[n+]1ccn(CCOC)c1.O=S(=O)([O-])C(F)(F)F,1-ethyl-3-(2-methoxyethyl)imidazolium trifluoromethanesulfonate,ABGawV,CC(C)O,propan-2-ol,AALcwx,CC[n+]1ccn(CCOC)c1,O=S(=O)([O-])C(F)(F)F,2,,,,220,False,CC[n+]1ccn(CCOC)c1.O=S(=O)([O-])C(F)(F)F,No changes
YqDhU,293.15,100.0,1159.5,Fang et al. (2019b),Liquid,0.4003,1-ethyl-3-(2-methoxyethyl)imidazolium trifluoromethanesulfonate,,,CC[n+]1ccn(CCOC)c1.O=S(=O)([O-])C(F)(F)F,1-ethyl-3-(2-methoxyethyl)imidazolium trifluoromethanesulfonate,ABGawV,CC(C)O,propan-2-ol,AALcwx,CC[n+]1ccn(CCOC)c1,O=S(=O)([O-])C(F)(F)F,2,,,,221,False,CC[n+]1ccn(CCOC)c1.O=S(=O)([O-])C(F)(F)F,No changes
YqDhU,293.15,100.0,1205.9,Fang et al. (2019b),Liquid,0.5004,1-ethyl-3-(2-methoxyethyl)imidazolium trifluoromethanesulfonate,,,CC[n+]1ccn(CCOC)c1.O=S(=O)([O-])C(F)(F)F,1-ethyl-3-(2-methoxyethyl)imidazolium trifluoromethanesulfonate,ABGawV,CC(C)O,propan-2-ol,AALcwx,CC[n+]1ccn(CCOC)c1,O=S(=O)([O-])C(F)(F)F,2,,,,222,False,CC[n+]1ccn(CCOC)c1.O=S(=O)([O-])C(F)(F)F,No changes
YqDhU,293.15,100.0,1244.0,Fang et al. (2019b),Liquid,0.6008,1-ethyl-3-(2-methoxyethyl)imidazolium trifluoromethanesulfonate,,,CC[n+]1ccn(CCOC)c1.O=S(=O)([O-])C(F)(F)F,1-ethyl-3-(2-methoxyethyl)imidazolium trifluoromethanesulfonate,ABGawV,CC(C)O,propan-2-ol,AALcwx,CC[n+]1ccn(CCOC)c1,O=S(=O)([O-])C(F)(F)F,2,,,,223,False,CC[n+]1ccn(CCOC)c1.O=S(=O)([O-])C(F)(F)F,No changes
YqDhU,293.15,100.0,1275.2,Fang et al. (2019b),Liquid,0.7,1-ethyl-3-(2-methoxyethyl)imidazolium trifluoromethanesulfonate,,,CC[n+]1ccn(CCOC)c1.O=S(=O)([O-])C(F)(F)F,1-ethyl-3-(2-methoxyethyl)imidazolium trifluoromethanesulfonate,ABGawV,CC(C)O,propan-2-ol,AALcwx,CC[n+]1ccn(CCOC)c1,O=S(=O)([O-])C(F)(F)F,2,,,,224,False,CC[n+]1ccn(CCOC)c1.O=S(=O)([O-])C(F)(F)F,No changes
YqDhU,293.15,100.0,1301.9,Fang et al. (2019b),Liquid,0.7998,1-ethyl-3-(2-methoxyethyl)imidazolium trifluoromethanesulfonate,,,CC[n+]1ccn(CCOC)c1.O=S(=O)([O-])C(F)(F)F,1-ethyl-3-(2-methoxyethyl)imidazolium trifluoromethanesulfonate,ABGawV,CC(C)O,propan-2-ol,AALcwx,CC[n+]1ccn(CCOC)c1,O=S(=O)([O-])C(F)(F)F,2,,,,225,False,CC[n+]1ccn(CCOC)c1.O=S(=O)([O-])C(F)(F)F,No changes
YqDhU,293.15,100.0,1325.0,Fang et al. (2019b),Liquid,0.9003,1-ethyl-3-(2-methoxyethyl)imidazolium trifluoromethanesulfonate,,,CC[n+]1ccn(CCOC)c1.O=S(=O)([O-])C(F)(F)F,1-ethyl-3-(2-methoxyethyl)imidazolium trifluoromethanesulfonate,ABGawV,CC(C)O,propan-2-ol,AALcwx,CC[n+]1ccn(CCOC)c1,O=S(=O)([O-])C(F)(F)F,2,,,,226,False,CC[n+]1ccn(CCOC)c1.O=S(=O)([O-])C(F)(F)F,No changes