setid,Temperature (K),Pressure (kPa),Density (kg/m3),reference,phases,Mole fraction,Mole fraction of compound name,Weight fraction,Weight fraction of compound name,IL_SMILES,IL_name,IL_ID,Solvent_SMILES,Solvent_name,Solvent_ID,IL_cation_SMILES,IL_anion_SMILES,IL_component_number,Mole fraction of solvent,IL_MW,Solvent_MW,Record_ID,Contains_Metal,Standardized_IL_SMILES,Changes
kvnyW,313.15,100.0,768.02,Xing et al. (2017),Liquid,0.0,1-ethylpyridinium dicyanamide,,,CC[n+]1ccccc1.N#C[N-]C#N,1-ethylpyridinium dicyanamide,AAhaEl,CC(C)O,propan-2-ol,AALcwx,CC[n+]1ccccc1,N#C[N-]C#N,2,,,,1202,False,CC[n+]1ccccc1.N#C[N-]C#N,No changes
kvnyW,313.15,100.0,838.95,Xing et al. (2017),Liquid,0.1003,1-ethylpyridinium dicyanamide,,,CC[n+]1ccccc1.N#C[N-]C#N,1-ethylpyridinium dicyanamide,AAhaEl,CC(C)O,propan-2-ol,AALcwx,CC[n+]1ccccc1,N#C[N-]C#N,2,,,,1203,False,CC[n+]1ccccc1.N#C[N-]C#N,No changes
kvnyW,313.15,100.0,893.45,Xing et al. (2017),Liquid,0.1993,1-ethylpyridinium dicyanamide,,,CC[n+]1ccccc1.N#C[N-]C#N,1-ethylpyridinium dicyanamide,AAhaEl,CC(C)O,propan-2-ol,AALcwx,CC[n+]1ccccc1,N#C[N-]C#N,2,,,,1204,False,CC[n+]1ccccc1.N#C[N-]C#N,No changes
kvnyW,313.15,100.0,938.1,Xing et al. (2017),Liquid,0.2994,1-ethylpyridinium dicyanamide,,,CC[n+]1ccccc1.N#C[N-]C#N,1-ethylpyridinium dicyanamide,AAhaEl,CC(C)O,propan-2-ol,AALcwx,CC[n+]1ccccc1,N#C[N-]C#N,2,,,,1205,False,CC[n+]1ccccc1.N#C[N-]C#N,No changes
kvnyW,313.15,100.0,975.0,Xing et al. (2017),Liquid,0.4002,1-ethylpyridinium dicyanamide,,,CC[n+]1ccccc1.N#C[N-]C#N,1-ethylpyridinium dicyanamide,AAhaEl,CC(C)O,propan-2-ol,AALcwx,CC[n+]1ccccc1,N#C[N-]C#N,2,,,,1206,False,CC[n+]1ccccc1.N#C[N-]C#N,No changes
kvnyW,313.15,100.0,1006.1,Xing et al. (2017),Liquid,0.501,1-ethylpyridinium dicyanamide,,,CC[n+]1ccccc1.N#C[N-]C#N,1-ethylpyridinium dicyanamide,AAhaEl,CC(C)O,propan-2-ol,AALcwx,CC[n+]1ccccc1,N#C[N-]C#N,2,,,,1207,False,CC[n+]1ccccc1.N#C[N-]C#N,No changes
kvnyW,313.15,100.0,1031.1,Xing et al. (2017),Liquid,0.5977,1-ethylpyridinium dicyanamide,,,CC[n+]1ccccc1.N#C[N-]C#N,1-ethylpyridinium dicyanamide,AAhaEl,CC(C)O,propan-2-ol,AALcwx,CC[n+]1ccccc1,N#C[N-]C#N,2,,,,1208,False,CC[n+]1ccccc1.N#C[N-]C#N,No changes
kvnyW,313.15,100.0,1054.4,Xing et al. (2017),Liquid,0.7003,1-ethylpyridinium dicyanamide,,,CC[n+]1ccccc1.N#C[N-]C#N,1-ethylpyridinium dicyanamide,AAhaEl,CC(C)O,propan-2-ol,AALcwx,CC[n+]1ccccc1,N#C[N-]C#N,2,,,,1209,False,CC[n+]1ccccc1.N#C[N-]C#N,No changes
kvnyW,313.15,100.0,1073.6,Xing et al. (2017),Liquid,0.8001,1-ethylpyridinium dicyanamide,,,CC[n+]1ccccc1.N#C[N-]C#N,1-ethylpyridinium dicyanamide,AAhaEl,CC(C)O,propan-2-ol,AALcwx,CC[n+]1ccccc1,N#C[N-]C#N,2,,,,1210,False,CC[n+]1ccccc1.N#C[N-]C#N,No changes
kvnyW,313.15,100.0,1090.8,Xing et al. (2017),Liquid,0.8945,1-ethylpyridinium dicyanamide,,,CC[n+]1ccccc1.N#C[N-]C#N,1-ethylpyridinium dicyanamide,AAhaEl,CC(C)O,propan-2-ol,AALcwx,CC[n+]1ccccc1,N#C[N-]C#N,2,,,,1211,False,CC[n+]1ccccc1.N#C[N-]C#N,No changes
kvnyW,313.15,100.0,1109.0,Xing et al. (2017),Liquid,1.0,1-ethylpyridinium dicyanamide,,,CC[n+]1ccccc1.N#C[N-]C#N,1-ethylpyridinium dicyanamide,AAhaEl,CC(C)O,propan-2-ol,AALcwx,CC[n+]1ccccc1,N#C[N-]C#N,2,,,,1212,False,CC[n+]1ccccc1.N#C[N-]C#N,No changes
kvnyW,318.15,100.0,763.48,Xing et al. (2017),Liquid,0.0,1-ethylpyridinium dicyanamide,,,CC[n+]1ccccc1.N#C[N-]C#N,1-ethylpyridinium dicyanamide,AAhaEl,CC(C)O,propan-2-ol,AALcwx,CC[n+]1ccccc1,N#C[N-]C#N,2,,,,1213,False,CC[n+]1ccccc1.N#C[N-]C#N,No changes
kvnyW,318.15,100.0,835.03,Xing et al. (2017),Liquid,0.1003,1-ethylpyridinium dicyanamide,,,CC[n+]1ccccc1.N#C[N-]C#N,1-ethylpyridinium dicyanamide,AAhaEl,CC(C)O,propan-2-ol,AALcwx,CC[n+]1ccccc1,N#C[N-]C#N,2,,,,1214,False,CC[n+]1ccccc1.N#C[N-]C#N,No changes
kvnyW,318.15,100.0,889.8,Xing et al. (2017),Liquid,0.1993,1-ethylpyridinium dicyanamide,,,CC[n+]1ccccc1.N#C[N-]C#N,1-ethylpyridinium dicyanamide,AAhaEl,CC(C)O,propan-2-ol,AALcwx,CC[n+]1ccccc1,N#C[N-]C#N,2,,,,1215,False,CC[n+]1ccccc1.N#C[N-]C#N,No changes
kvnyW,318.15,100.0,934.59,Xing et al. (2017),Liquid,0.2994,1-ethylpyridinium dicyanamide,,,CC[n+]1ccccc1.N#C[N-]C#N,1-ethylpyridinium dicyanamide,AAhaEl,CC(C)O,propan-2-ol,AALcwx,CC[n+]1ccccc1,N#C[N-]C#N,2,,,,1216,False,CC[n+]1ccccc1.N#C[N-]C#N,No changes
kvnyW,318.15,100.0,971.7,Xing et al. (2017),Liquid,0.4002,1-ethylpyridinium dicyanamide,,,CC[n+]1ccccc1.N#C[N-]C#N,1-ethylpyridinium dicyanamide,AAhaEl,CC(C)O,propan-2-ol,AALcwx,CC[n+]1ccccc1,N#C[N-]C#N,2,,,,1217,False,CC[n+]1ccccc1.N#C[N-]C#N,No changes
kvnyW,318.15,100.0,1002.8,Xing et al. (2017),Liquid,0.501,1-ethylpyridinium dicyanamide,,,CC[n+]1ccccc1.N#C[N-]C#N,1-ethylpyridinium dicyanamide,AAhaEl,CC(C)O,propan-2-ol,AALcwx,CC[n+]1ccccc1,N#C[N-]C#N,2,,,,1218,False,CC[n+]1ccccc1.N#C[N-]C#N,No changes
kvnyW,318.15,100.0,1027.9,Xing et al. (2017),Liquid,0.5977,1-ethylpyridinium dicyanamide,,,CC[n+]1ccccc1.N#C[N-]C#N,1-ethylpyridinium dicyanamide,AAhaEl,CC(C)O,propan-2-ol,AALcwx,CC[n+]1ccccc1,N#C[N-]C#N,2,,,,1219,False,CC[n+]1ccccc1.N#C[N-]C#N,No changes
kvnyW,318.15,100.0,1051.2,Xing et al. (2017),Liquid,0.7003,1-ethylpyridinium dicyanamide,,,CC[n+]1ccccc1.N#C[N-]C#N,1-ethylpyridinium dicyanamide,AAhaEl,CC(C)O,propan-2-ol,AALcwx,CC[n+]1ccccc1,N#C[N-]C#N,2,,,,1220,False,CC[n+]1ccccc1.N#C[N-]C#N,No changes
kvnyW,318.15,100.0,1070.4,Xing et al. (2017),Liquid,0.8001,1-ethylpyridinium dicyanamide,,,CC[n+]1ccccc1.N#C[N-]C#N,1-ethylpyridinium dicyanamide,AAhaEl,CC(C)O,propan-2-ol,AALcwx,CC[n+]1ccccc1,N#C[N-]C#N,2,,,,1221,False,CC[n+]1ccccc1.N#C[N-]C#N,No changes
kvnyW,318.15,100.0,1087.7,Xing et al. (2017),Liquid,0.8945,1-ethylpyridinium dicyanamide,,,CC[n+]1ccccc1.N#C[N-]C#N,1-ethylpyridinium dicyanamide,AAhaEl,CC(C)O,propan-2-ol,AALcwx,CC[n+]1ccccc1,N#C[N-]C#N,2,,,,1222,False,CC[n+]1ccccc1.N#C[N-]C#N,No changes
kvnyW,318.15,100.0,1105.9,Xing et al. (2017),Liquid,1.0,1-ethylpyridinium dicyanamide,,,CC[n+]1ccccc1.N#C[N-]C#N,1-ethylpyridinium dicyanamide,AAhaEl,CC(C)O,propan-2-ol,AALcwx,CC[n+]1ccccc1,N#C[N-]C#N,2,,,,1223,False,CC[n+]1ccccc1.N#C[N-]C#N,No changes
byttr,293.15,101.0,785.0,Pereiro and Rodriguez (2007a),Liquid,0.0,1-hexyl-3-methylimidazolium hexafluorophosphate,,,CCCCCC[n+]1ccn(C)c1.F[P-](F)(F)(F)(F)F,1-hexyl-3-methylimidazolium hexafluorophosphate,ABICIG,CC(C)O,propan-2-ol,AALcwx,CCCCCC[n+]1ccn(C)c1,F[P-](F)(F)(F)(F)F,2,,,,1224,False,CCCCCC[n+]1ccn(C)c1.F[P-](F)(F)(F)(F)F,No changes
byttr,293.15,101.0,787.0,Pereiro and Rodriguez (2007a),Liquid,0.0011,1-hexyl-3-methylimidazolium hexafluorophosphate,,,CCCCCC[n+]1ccn(C)c1.F[P-](F)(F)(F)(F)F,1-hexyl-3-methylimidazolium hexafluorophosphate,ABICIG,CC(C)O,propan-2-ol,AALcwx,CCCCCC[n+]1ccn(C)c1,F[P-](F)(F)(F)(F)F,2,,,,1225,False,CCCCCC[n+]1ccn(C)c1.F[P-](F)(F)(F)(F)F,No changes
byttr,293.15,101.0,788.4,Pereiro and Rodriguez (2007a),Liquid,0.0019,1-hexyl-3-methylimidazolium hexafluorophosphate,,,CCCCCC[n+]1ccn(C)c1.F[P-](F)(F)(F)(F)F,1-hexyl-3-methylimidazolium hexafluorophosphate,ABICIG,CC(C)O,propan-2-ol,AALcwx,CCCCCC[n+]1ccn(C)c1,F[P-](F)(F)(F)(F)F,2,,,,1226,False,CCCCCC[n+]1ccn(C)c1.F[P-](F)(F)(F)(F)F,No changes
byttr,293.15,101.0,1213.5,Pereiro and Rodriguez (2007a),Liquid,0.6123,1-hexyl-3-methylimidazolium hexafluorophosphate,,,CCCCCC[n+]1ccn(C)c1.F[P-](F)(F)(F)(F)F,1-hexyl-3-methylimidazolium hexafluorophosphate,ABICIG,CC(C)O,propan-2-ol,AALcwx,CCCCCC[n+]1ccn(C)c1,F[P-](F)(F)(F)(F)F,2,,,,1227,False,CCCCCC[n+]1ccn(C)c1.F[P-](F)(F)(F)(F)F,No changes
byttr,293.15,101.0,1236.0,Pereiro and Rodriguez (2007a),Liquid,0.6958,1-hexyl-3-methylimidazolium hexafluorophosphate,,,CCCCCC[n+]1ccn(C)c1.F[P-](F)(F)(F)(F)F,1-hexyl-3-methylimidazolium hexafluorophosphate,ABICIG,CC(C)O,propan-2-ol,AALcwx,CCCCCC[n+]1ccn(C)c1,F[P-](F)(F)(F)(F)F,2,,,,1228,False,CCCCCC[n+]1ccn(C)c1.F[P-](F)(F)(F)(F)F,No changes
byttr,293.15,101.0,1261.8,Pereiro and Rodriguez (2007a),Liquid,0.811,1-hexyl-3-methylimidazolium hexafluorophosphate,,,CCCCCC[n+]1ccn(C)c1.F[P-](F)(F)(F)(F)F,1-hexyl-3-methylimidazolium hexafluorophosphate,ABICIG,CC(C)O,propan-2-ol,AALcwx,CCCCCC[n+]1ccn(C)c1,F[P-](F)(F)(F)(F)F,2,,,,1229,False,CCCCCC[n+]1ccn(C)c1.F[P-](F)(F)(F)(F)F,No changes
byttr,293.15,101.0,1283.9,Pereiro and Rodriguez (2007a),Liquid,0.926,1-hexyl-3-methylimidazolium hexafluorophosphate,,,CCCCCC[n+]1ccn(C)c1.F[P-](F)(F)(F)(F)F,1-hexyl-3-methylimidazolium hexafluorophosphate,ABICIG,CC(C)O,propan-2-ol,AALcwx,CCCCCC[n+]1ccn(C)c1,F[P-](F)(F)(F)(F)F,2,,,,1230,False,CCCCCC[n+]1ccn(C)c1.F[P-](F)(F)(F)(F)F,No changes
byttr,293.15,101.0,1296.2,Pereiro and Rodriguez (2007a),Liquid,0.9933,1-hexyl-3-methylimidazolium hexafluorophosphate,,,CCCCCC[n+]1ccn(C)c1.F[P-](F)(F)(F)(F)F,1-hexyl-3-methylimidazolium hexafluorophosphate,ABICIG,CC(C)O,propan-2-ol,AALcwx,CCCCCC[n+]1ccn(C)c1,F[P-](F)(F)(F)(F)F,2,,,,1231,False,CCCCCC[n+]1ccn(C)c1.F[P-](F)(F)(F)(F)F,No changes
byttr,293.15,101.0,1297.9,Pereiro and Rodriguez (2007a),Liquid,1.0,1-hexyl-3-methylimidazolium hexafluorophosphate,,,CCCCCC[n+]1ccn(C)c1.F[P-](F)(F)(F)(F)F,1-hexyl-3-methylimidazolium hexafluorophosphate,ABICIG,CC(C)O,propan-2-ol,AALcwx,CCCCCC[n+]1ccn(C)c1,F[P-](F)(F)(F)(F)F,2,,,,1232,False,CCCCCC[n+]1ccn(C)c1.F[P-](F)(F)(F)(F)F,No changes
byttr,298.15,101.0,781.0,Pereiro and Rodriguez (2007a),Liquid,0.0,1-hexyl-3-methylimidazolium hexafluorophosphate,,,CCCCCC[n+]1ccn(C)c1.F[P-](F)(F)(F)(F)F,1-hexyl-3-methylimidazolium hexafluorophosphate,ABICIG,CC(C)O,propan-2-ol,AALcwx,CCCCCC[n+]1ccn(C)c1,F[P-](F)(F)(F)(F)F,2,,,,1233,False,CCCCCC[n+]1ccn(C)c1.F[P-](F)(F)(F)(F)F,No changes
byttr,298.15,101.0,782.8,Pereiro and Rodriguez (2007a),Liquid,0.0011,1-hexyl-3-methylimidazolium hexafluorophosphate,,,CCCCCC[n+]1ccn(C)c1.F[P-](F)(F)(F)(F)F,1-hexyl-3-methylimidazolium hexafluorophosphate,ABICIG,CC(C)O,propan-2-ol,AALcwx,CCCCCC[n+]1ccn(C)c1,F[P-](F)(F)(F)(F)F,2,,,,1234,False,CCCCCC[n+]1ccn(C)c1.F[P-](F)(F)(F)(F)F,No changes
byttr,298.15,101.0,784.2,Pereiro and Rodriguez (2007a),Liquid,0.0019,1-hexyl-3-methylimidazolium hexafluorophosphate,,,CCCCCC[n+]1ccn(C)c1.F[P-](F)(F)(F)(F)F,1-hexyl-3-methylimidazolium hexafluorophosphate,ABICIG,CC(C)O,propan-2-ol,AALcwx,CCCCCC[n+]1ccn(C)c1,F[P-](F)(F)(F)(F)F,2,,,,1235,False,CCCCCC[n+]1ccn(C)c1.F[P-](F)(F)(F)(F)F,No changes
byttr,298.15,101.0,785.4,Pereiro and Rodriguez (2007a),Liquid,0.0024,1-hexyl-3-methylimidazolium hexafluorophosphate,,,CCCCCC[n+]1ccn(C)c1.F[P-](F)(F)(F)(F)F,1-hexyl-3-methylimidazolium hexafluorophosphate,ABICIG,CC(C)O,propan-2-ol,AALcwx,CCCCCC[n+]1ccn(C)c1,F[P-](F)(F)(F)(F)F,2,,,,1236,False,CCCCCC[n+]1ccn(C)c1.F[P-](F)(F)(F)(F)F,No changes
byttr,298.15,101.0,1168.7,Pereiro and Rodriguez (2007a),Liquid,0.4893,1-hexyl-3-methylimidazolium hexafluorophosphate,,,CCCCCC[n+]1ccn(C)c1.F[P-](F)(F)(F)(F)F,1-hexyl-3-methylimidazolium hexafluorophosphate,ABICIG,CC(C)O,propan-2-ol,AALcwx,CCCCCC[n+]1ccn(C)c1,F[P-](F)(F)(F)(F)F,2,,,,1237,False,CCCCCC[n+]1ccn(C)c1.F[P-](F)(F)(F)(F)F,No changes
byttr,298.15,101.0,1209.4,Pereiro and Rodriguez (2007a),Liquid,0.6123,1-hexyl-3-methylimidazolium hexafluorophosphate,,,CCCCCC[n+]1ccn(C)c1.F[P-](F)(F)(F)(F)F,1-hexyl-3-methylimidazolium hexafluorophosphate,ABICIG,CC(C)O,propan-2-ol,AALcwx,CCCCCC[n+]1ccn(C)c1,F[P-](F)(F)(F)(F)F,2,,,,1238,False,CCCCCC[n+]1ccn(C)c1.F[P-](F)(F)(F)(F)F,No changes
byttr,298.15,101.0,1232.0,Pereiro and Rodriguez (2007a),Liquid,0.6958,1-hexyl-3-methylimidazolium hexafluorophosphate,,,CCCCCC[n+]1ccn(C)c1.F[P-](F)(F)(F)(F)F,1-hexyl-3-methylimidazolium hexafluorophosphate,ABICIG,CC(C)O,propan-2-ol,AALcwx,CCCCCC[n+]1ccn(C)c1,F[P-](F)(F)(F)(F)F,2,,,,1239,False,CCCCCC[n+]1ccn(C)c1.F[P-](F)(F)(F)(F)F,No changes
byttr,298.15,101.0,1257.7,Pereiro and Rodriguez (2007a),Liquid,0.811,1-hexyl-3-methylimidazolium hexafluorophosphate,,,CCCCCC[n+]1ccn(C)c1.F[P-](F)(F)(F)(F)F,1-hexyl-3-methylimidazolium hexafluorophosphate,ABICIG,CC(C)O,propan-2-ol,AALcwx,CCCCCC[n+]1ccn(C)c1,F[P-](F)(F)(F)(F)F,2,,,,1240,False,CCCCCC[n+]1ccn(C)c1.F[P-](F)(F)(F)(F)F,No changes
byttr,298.15,101.0,1279.9,Pereiro and Rodriguez (2007a),Liquid,0.926,1-hexyl-3-methylimidazolium hexafluorophosphate,,,CCCCCC[n+]1ccn(C)c1.F[P-](F)(F)(F)(F)F,1-hexyl-3-methylimidazolium hexafluorophosphate,ABICIG,CC(C)O,propan-2-ol,AALcwx,CCCCCC[n+]1ccn(C)c1,F[P-](F)(F)(F)(F)F,2,,,,1241,False,CCCCCC[n+]1ccn(C)c1.F[P-](F)(F)(F)(F)F,No changes
byttr,298.15,101.0,1292.2,Pereiro and Rodriguez (2007a),Liquid,0.9933,1-hexyl-3-methylimidazolium hexafluorophosphate,,,CCCCCC[n+]1ccn(C)c1.F[P-](F)(F)(F)(F)F,1-hexyl-3-methylimidazolium hexafluorophosphate,ABICIG,CC(C)O,propan-2-ol,AALcwx,CCCCCC[n+]1ccn(C)c1,F[P-](F)(F)(F)(F)F,2,,,,1242,False,CCCCCC[n+]1ccn(C)c1.F[P-](F)(F)(F)(F)F,No changes
byttr,298.15,101.0,1293.7,Pereiro and Rodriguez (2007a),Liquid,1.0,1-hexyl-3-methylimidazolium hexafluorophosphate,,,CCCCCC[n+]1ccn(C)c1.F[P-](F)(F)(F)(F)F,1-hexyl-3-methylimidazolium hexafluorophosphate,ABICIG,CC(C)O,propan-2-ol,AALcwx,CCCCCC[n+]1ccn(C)c1,F[P-](F)(F)(F)(F)F,2,,,,1243,False,CCCCCC[n+]1ccn(C)c1.F[P-](F)(F)(F)(F)F,No changes
byttr,303.15,101.0,776.6,Pereiro and Rodriguez (2007a),Liquid,0.0,1-hexyl-3-methylimidazolium hexafluorophosphate,,,CCCCCC[n+]1ccn(C)c1.F[P-](F)(F)(F)(F)F,1-hexyl-3-methylimidazolium hexafluorophosphate,ABICIG,CC(C)O,propan-2-ol,AALcwx,CCCCCC[n+]1ccn(C)c1,F[P-](F)(F)(F)(F)F,2,,,,1244,False,CCCCCC[n+]1ccn(C)c1.F[P-](F)(F)(F)(F)F,No changes
byttr,303.15,101.0,778.5,Pereiro and Rodriguez (2007a),Liquid,0.0011,1-hexyl-3-methylimidazolium hexafluorophosphate,,,CCCCCC[n+]1ccn(C)c1.F[P-](F)(F)(F)(F)F,1-hexyl-3-methylimidazolium hexafluorophosphate,ABICIG,CC(C)O,propan-2-ol,AALcwx,CCCCCC[n+]1ccn(C)c1,F[P-](F)(F)(F)(F)F,2,,,,1245,False,CCCCCC[n+]1ccn(C)c1.F[P-](F)(F)(F)(F)F,No changes
byttr,303.15,101.0,780.0,Pereiro and Rodriguez (2007a),Liquid,0.0019,1-hexyl-3-methylimidazolium hexafluorophosphate,,,CCCCCC[n+]1ccn(C)c1.F[P-](F)(F)(F)(F)F,1-hexyl-3-methylimidazolium hexafluorophosphate,ABICIG,CC(C)O,propan-2-ol,AALcwx,CCCCCC[n+]1ccn(C)c1,F[P-](F)(F)(F)(F)F,2,,,,1246,False,CCCCCC[n+]1ccn(C)c1.F[P-](F)(F)(F)(F)F,No changes
byttr,303.15,101.0,781.1,Pereiro and Rodriguez (2007a),Liquid,0.0024,1-hexyl-3-methylimidazolium hexafluorophosphate,,,CCCCCC[n+]1ccn(C)c1.F[P-](F)(F)(F)(F)F,1-hexyl-3-methylimidazolium hexafluorophosphate,ABICIG,CC(C)O,propan-2-ol,AALcwx,CCCCCC[n+]1ccn(C)c1,F[P-](F)(F)(F)(F)F,2,,,,1247,False,CCCCCC[n+]1ccn(C)c1.F[P-](F)(F)(F)(F)F,No changes
byttr,303.15,101.0,1164.6,Pereiro and Rodriguez (2007a),Liquid,0.4893,1-hexyl-3-methylimidazolium hexafluorophosphate,,,CCCCCC[n+]1ccn(C)c1.F[P-](F)(F)(F)(F)F,1-hexyl-3-methylimidazolium hexafluorophosphate,ABICIG,CC(C)O,propan-2-ol,AALcwx,CCCCCC[n+]1ccn(C)c1,F[P-](F)(F)(F)(F)F,2,,,,1248,False,CCCCCC[n+]1ccn(C)c1.F[P-](F)(F)(F)(F)F,No changes
byttr,303.15,101.0,1205.3,Pereiro and Rodriguez (2007a),Liquid,0.6123,1-hexyl-3-methylimidazolium hexafluorophosphate,,,CCCCCC[n+]1ccn(C)c1.F[P-](F)(F)(F)(F)F,1-hexyl-3-methylimidazolium hexafluorophosphate,ABICIG,CC(C)O,propan-2-ol,AALcwx,CCCCCC[n+]1ccn(C)c1,F[P-](F)(F)(F)(F)F,2,,,,1249,False,CCCCCC[n+]1ccn(C)c1.F[P-](F)(F)(F)(F)F,No changes
byttr,303.15,101.0,1227.9,Pereiro and Rodriguez (2007a),Liquid,0.6958,1-hexyl-3-methylimidazolium hexafluorophosphate,,,CCCCCC[n+]1ccn(C)c1.F[P-](F)(F)(F)(F)F,1-hexyl-3-methylimidazolium hexafluorophosphate,ABICIG,CC(C)O,propan-2-ol,AALcwx,CCCCCC[n+]1ccn(C)c1,F[P-](F)(F)(F)(F)F,2,,,,1250,False,CCCCCC[n+]1ccn(C)c1.F[P-](F)(F)(F)(F)F,No changes
byttr,303.15,101.0,1253.8,Pereiro and Rodriguez (2007a),Liquid,0.811,1-hexyl-3-methylimidazolium hexafluorophosphate,,,CCCCCC[n+]1ccn(C)c1.F[P-](F)(F)(F)(F)F,1-hexyl-3-methylimidazolium hexafluorophosphate,ABICIG,CC(C)O,propan-2-ol,AALcwx,CCCCCC[n+]1ccn(C)c1,F[P-](F)(F)(F)(F)F,2,,,,1251,False,CCCCCC[n+]1ccn(C)c1.F[P-](F)(F)(F)(F)F,No changes
byttr,303.15,101.0,1275.9,Pereiro and Rodriguez (2007a),Liquid,0.926,1-hexyl-3-methylimidazolium hexafluorophosphate,,,CCCCCC[n+]1ccn(C)c1.F[P-](F)(F)(F)(F)F,1-hexyl-3-methylimidazolium hexafluorophosphate,ABICIG,CC(C)O,propan-2-ol,AALcwx,CCCCCC[n+]1ccn(C)c1,F[P-](F)(F)(F)(F)F,2,,,,1252,False,CCCCCC[n+]1ccn(C)c1.F[P-](F)(F)(F)(F)F,No changes
byttr,303.15,101.0,1288.3,Pereiro and Rodriguez (2007a),Liquid,0.9933,1-hexyl-3-methylimidazolium hexafluorophosphate,,,CCCCCC[n+]1ccn(C)c1.F[P-](F)(F)(F)(F)F,1-hexyl-3-methylimidazolium hexafluorophosphate,ABICIG,CC(C)O,propan-2-ol,AALcwx,CCCCCC[n+]1ccn(C)c1,F[P-](F)(F)(F)(F)F,2,,,,1253,False,CCCCCC[n+]1ccn(C)c1.F[P-](F)(F)(F)(F)F,No changes
byttr,303.15,101.0,1289.6,Pereiro and Rodriguez (2007a),Liquid,1.0,1-hexyl-3-methylimidazolium hexafluorophosphate,,,CCCCCC[n+]1ccn(C)c1.F[P-](F)(F)(F)(F)F,1-hexyl-3-methylimidazolium hexafluorophosphate,ABICIG,CC(C)O,propan-2-ol,AALcwx,CCCCCC[n+]1ccn(C)c1,F[P-](F)(F)(F)(F)F,2,,,,1254,False,CCCCCC[n+]1ccn(C)c1.F[P-](F)(F)(F)(F)F,No changes
yaLLd,298.15,101.3,781.123,Singh et al. (2013),Liquid,0.0,1-butyl-3-methylimidazolium methyl sulfate,,,CCCC[n+]1ccn(C)c1.COS(=O)(=O)[O-],1-butyl-3-methylimidazolium methyl sulfate,AAwHNg,CC(C)O,propan-2-ol,AALcwx,CCCC[n+]1ccn(C)c1,COS(=O)(=O)[O-],2,,,,1255,False,CCCC[n+]1ccn(C)c1.COS(=O)(=O)[O-],No changes
yaLLd,298.15,101.3,835.17,Singh et al. (2013),Liquid,0.0482,1-butyl-3-methylimidazolium methyl sulfate,,,CCCC[n+]1ccn(C)c1.COS(=O)(=O)[O-],1-butyl-3-methylimidazolium methyl sulfate,AAwHNg,CC(C)O,propan-2-ol,AALcwx,CCCC[n+]1ccn(C)c1,COS(=O)(=O)[O-],2,,,,1256,False,CCCC[n+]1ccn(C)c1.COS(=O)(=O)[O-],No changes
yaLLd,298.15,101.3,880.673,Singh et al. (2013),Liquid,0.0965,1-butyl-3-methylimidazolium methyl sulfate,,,CCCC[n+]1ccn(C)c1.COS(=O)(=O)[O-],1-butyl-3-methylimidazolium methyl sulfate,AAwHNg,CC(C)O,propan-2-ol,AALcwx,CCCC[n+]1ccn(C)c1,COS(=O)(=O)[O-],2,,,,1257,False,CCCC[n+]1ccn(C)c1.COS(=O)(=O)[O-],No changes
yaLLd,298.15,101.3,955.343,Singh et al. (2013),Liquid,0.1938,1-butyl-3-methylimidazolium methyl sulfate,,,CCCC[n+]1ccn(C)c1.COS(=O)(=O)[O-],1-butyl-3-methylimidazolium methyl sulfate,AAwHNg,CC(C)O,propan-2-ol,AALcwx,CCCC[n+]1ccn(C)c1,COS(=O)(=O)[O-],2,,,,1258,False,CCCC[n+]1ccn(C)c1.COS(=O)(=O)[O-],No changes
yaLLd,298.15,101.3,1013.5,Singh et al. (2013),Liquid,0.2928,1-butyl-3-methylimidazolium methyl sulfate,,,CCCC[n+]1ccn(C)c1.COS(=O)(=O)[O-],1-butyl-3-methylimidazolium methyl sulfate,AAwHNg,CC(C)O,propan-2-ol,AALcwx,CCCC[n+]1ccn(C)c1,COS(=O)(=O)[O-],2,,,,1259,False,CCCC[n+]1ccn(C)c1.COS(=O)(=O)[O-],No changes
yaLLd,298.15,101.3,1059.05,Singh et al. (2013),Liquid,0.3902,1-butyl-3-methylimidazolium methyl sulfate,,,CCCC[n+]1ccn(C)c1.COS(=O)(=O)[O-],1-butyl-3-methylimidazolium methyl sulfate,AAwHNg,CC(C)O,propan-2-ol,AALcwx,CCCC[n+]1ccn(C)c1,COS(=O)(=O)[O-],2,,,,1260,False,CCCC[n+]1ccn(C)c1.COS(=O)(=O)[O-],No changes
yaLLd,298.15,101.3,1099.29,Singh et al. (2013),Liquid,0.496,1-butyl-3-methylimidazolium methyl sulfate,,,CCCC[n+]1ccn(C)c1.COS(=O)(=O)[O-],1-butyl-3-methylimidazolium methyl sulfate,AAwHNg,CC(C)O,propan-2-ol,AALcwx,CCCC[n+]1ccn(C)c1,COS(=O)(=O)[O-],2,,,,1261,False,CCCC[n+]1ccn(C)c1.COS(=O)(=O)[O-],No changes
yaLLd,298.15,101.3,1128.6,Singh et al. (2013),Liquid,0.5903,1-butyl-3-methylimidazolium methyl sulfate,,,CCCC[n+]1ccn(C)c1.COS(=O)(=O)[O-],1-butyl-3-methylimidazolium methyl sulfate,AAwHNg,CC(C)O,propan-2-ol,AALcwx,CCCC[n+]1ccn(C)c1,COS(=O)(=O)[O-],2,,,,1262,False,CCCC[n+]1ccn(C)c1.COS(=O)(=O)[O-],No changes
yaLLd,298.15,101.3,1154.5,Singh et al. (2013),Liquid,0.6902,1-butyl-3-methylimidazolium methyl sulfate,,,CCCC[n+]1ccn(C)c1.COS(=O)(=O)[O-],1-butyl-3-methylimidazolium methyl sulfate,AAwHNg,CC(C)O,propan-2-ol,AALcwx,CCCC[n+]1ccn(C)c1,COS(=O)(=O)[O-],2,,,,1263,False,CCCC[n+]1ccn(C)c1.COS(=O)(=O)[O-],No changes
yaLLd,298.15,101.3,1178.0,Singh et al. (2013),Liquid,0.7978,1-butyl-3-methylimidazolium methyl sulfate,,,CCCC[n+]1ccn(C)c1.COS(=O)(=O)[O-],1-butyl-3-methylimidazolium methyl sulfate,AAwHNg,CC(C)O,propan-2-ol,AALcwx,CCCC[n+]1ccn(C)c1,COS(=O)(=O)[O-],2,,,,1264,False,CCCC[n+]1ccn(C)c1.COS(=O)(=O)[O-],No changes