setid,Temperature (K),Pressure (kPa),Density (kg/m3),reference,phases,Mole fraction,Mole fraction of compound name,Weight fraction,Weight fraction of compound name,IL_SMILES,IL_name,IL_ID,Solvent_SMILES,Solvent_name,Solvent_ID,IL_cation_SMILES,IL_anion_SMILES,IL_component_number,Mole fraction of solvent,IL_MW,Solvent_MW,Record_ID,Contains_Metal,Standardized_IL_SMILES,Changes
WYElD,328.15,101.0,1104.3,Yang et al. (2019b),Liquid,0.7002,1-methyl-3-(3-(trimethylammonio)propyl)-1H-imidazolium bis(dicyanamide),,,C[n+]1ccn(CCC[N+](C)(C)C)c1.N#C[N-]C#N.N#C[N-]C#N,1-methyl-3-(3-(trimethylammonio)propyl)-1H-imidazolium bis(dicyanamide),ABIhVd,CC(C)O,propan-2-ol,AALcwx,,,3,,,,107,False,C[n+]1ccn(CCC[N+](C)(C)C)c1.N#C[N-]C#N.N#C[N-]C#N,No changes
WYElD,328.15,101.0,1117.5,Yang et al. (2019b),Liquid,0.8001,1-methyl-3-(3-(trimethylammonio)propyl)-1H-imidazolium bis(dicyanamide),,,C[n+]1ccn(CCC[N+](C)(C)C)c1.N#C[N-]C#N.N#C[N-]C#N,1-methyl-3-(3-(trimethylammonio)propyl)-1H-imidazolium bis(dicyanamide),ABIhVd,CC(C)O,propan-2-ol,AALcwx,,,3,,,,108,False,C[n+]1ccn(CCC[N+](C)(C)C)c1.N#C[N-]C#N.N#C[N-]C#N,No changes
WYElD,328.15,101.0,1127.6,Yang et al. (2019b),Liquid,0.8985,1-methyl-3-(3-(trimethylammonio)propyl)-1H-imidazolium bis(dicyanamide),,,C[n+]1ccn(CCC[N+](C)(C)C)c1.N#C[N-]C#N.N#C[N-]C#N,1-methyl-3-(3-(trimethylammonio)propyl)-1H-imidazolium bis(dicyanamide),ABIhVd,CC(C)O,propan-2-ol,AALcwx,,,3,,,,109,False,C[n+]1ccn(CCC[N+](C)(C)C)c1.N#C[N-]C#N.N#C[N-]C#N,No changes
WYElD,328.15,101.0,1136.2,Yang et al. (2019b),Liquid,1.0,1-methyl-3-(3-(trimethylammonio)propyl)-1H-imidazolium bis(dicyanamide),,,C[n+]1ccn(CCC[N+](C)(C)C)c1.N#C[N-]C#N.N#C[N-]C#N,1-methyl-3-(3-(trimethylammonio)propyl)-1H-imidazolium bis(dicyanamide),ABIhVd,CC(C)O,propan-2-ol,AALcwx,,,3,,,,110,False,C[n+]1ccn(CCC[N+](C)(C)C)c1.N#C[N-]C#N.N#C[N-]C#N,No changes
WYElD,333.15,101.0,749.4,Yang et al. (2019b),Liquid,0.0,1-methyl-3-(3-(trimethylammonio)propyl)-1H-imidazolium bis(dicyanamide),,,C[n+]1ccn(CCC[N+](C)(C)C)c1.N#C[N-]C#N.N#C[N-]C#N,1-methyl-3-(3-(trimethylammonio)propyl)-1H-imidazolium bis(dicyanamide),ABIhVd,CC(C)O,propan-2-ol,AALcwx,,,3,,,,111,False,C[n+]1ccn(CCC[N+](C)(C)C)c1.N#C[N-]C#N.N#C[N-]C#N,No changes
WYElD,333.15,101.0,869.4,Yang et al. (2019b),Liquid,0.1001,1-methyl-3-(3-(trimethylammonio)propyl)-1H-imidazolium bis(dicyanamide),,,C[n+]1ccn(CCC[N+](C)(C)C)c1.N#C[N-]C#N.N#C[N-]C#N,1-methyl-3-(3-(trimethylammonio)propyl)-1H-imidazolium bis(dicyanamide),ABIhVd,CC(C)O,propan-2-ol,AALcwx,,,3,,,,112,False,C[n+]1ccn(CCC[N+](C)(C)C)c1.N#C[N-]C#N.N#C[N-]C#N,No changes
WYElD,333.15,101.0,945.8,Yang et al. (2019b),Liquid,0.2,1-methyl-3-(3-(trimethylammonio)propyl)-1H-imidazolium bis(dicyanamide),,,C[n+]1ccn(CCC[N+](C)(C)C)c1.N#C[N-]C#N.N#C[N-]C#N,1-methyl-3-(3-(trimethylammonio)propyl)-1H-imidazolium bis(dicyanamide),ABIhVd,CC(C)O,propan-2-ol,AALcwx,,,3,,,,113,False,C[n+]1ccn(CCC[N+](C)(C)C)c1.N#C[N-]C#N.N#C[N-]C#N,No changes
WYElD,333.15,101.0,997.0,Yang et al. (2019b),Liquid,0.2999,1-methyl-3-(3-(trimethylammonio)propyl)-1H-imidazolium bis(dicyanamide),,,C[n+]1ccn(CCC[N+](C)(C)C)c1.N#C[N-]C#N.N#C[N-]C#N,1-methyl-3-(3-(trimethylammonio)propyl)-1H-imidazolium bis(dicyanamide),ABIhVd,CC(C)O,propan-2-ol,AALcwx,,,3,,,,114,False,C[n+]1ccn(CCC[N+](C)(C)C)c1.N#C[N-]C#N.N#C[N-]C#N,No changes
WYElD,333.15,101.0,1034.6,Yang et al. (2019b),Liquid,0.4,1-methyl-3-(3-(trimethylammonio)propyl)-1H-imidazolium bis(dicyanamide),,,C[n+]1ccn(CCC[N+](C)(C)C)c1.N#C[N-]C#N.N#C[N-]C#N,1-methyl-3-(3-(trimethylammonio)propyl)-1H-imidazolium bis(dicyanamide),ABIhVd,CC(C)O,propan-2-ol,AALcwx,,,3,,,,115,False,C[n+]1ccn(CCC[N+](C)(C)C)c1.N#C[N-]C#N.N#C[N-]C#N,No changes
WYElD,333.15,101.0,1063.9,Yang et al. (2019b),Liquid,0.5001,1-methyl-3-(3-(trimethylammonio)propyl)-1H-imidazolium bis(dicyanamide),,,C[n+]1ccn(CCC[N+](C)(C)C)c1.N#C[N-]C#N.N#C[N-]C#N,1-methyl-3-(3-(trimethylammonio)propyl)-1H-imidazolium bis(dicyanamide),ABIhVd,CC(C)O,propan-2-ol,AALcwx,,,3,,,,116,False,C[n+]1ccn(CCC[N+](C)(C)C)c1.N#C[N-]C#N.N#C[N-]C#N,No changes
WYElD,333.15,101.0,1085.6,Yang et al. (2019b),Liquid,0.5998,1-methyl-3-(3-(trimethylammonio)propyl)-1H-imidazolium bis(dicyanamide),,,C[n+]1ccn(CCC[N+](C)(C)C)c1.N#C[N-]C#N.N#C[N-]C#N,1-methyl-3-(3-(trimethylammonio)propyl)-1H-imidazolium bis(dicyanamide),ABIhVd,CC(C)O,propan-2-ol,AALcwx,,,3,,,,117,False,C[n+]1ccn(CCC[N+](C)(C)C)c1.N#C[N-]C#N.N#C[N-]C#N,No changes
WYElD,333.15,101.0,1101.7,Yang et al. (2019b),Liquid,0.7002,1-methyl-3-(3-(trimethylammonio)propyl)-1H-imidazolium bis(dicyanamide),,,C[n+]1ccn(CCC[N+](C)(C)C)c1.N#C[N-]C#N.N#C[N-]C#N,1-methyl-3-(3-(trimethylammonio)propyl)-1H-imidazolium bis(dicyanamide),ABIhVd,CC(C)O,propan-2-ol,AALcwx,,,3,,,,118,False,C[n+]1ccn(CCC[N+](C)(C)C)c1.N#C[N-]C#N.N#C[N-]C#N,No changes
WYElD,333.15,101.0,1114.8,Yang et al. (2019b),Liquid,0.8001,1-methyl-3-(3-(trimethylammonio)propyl)-1H-imidazolium bis(dicyanamide),,,C[n+]1ccn(CCC[N+](C)(C)C)c1.N#C[N-]C#N.N#C[N-]C#N,1-methyl-3-(3-(trimethylammonio)propyl)-1H-imidazolium bis(dicyanamide),ABIhVd,CC(C)O,propan-2-ol,AALcwx,,,3,,,,119,False,C[n+]1ccn(CCC[N+](C)(C)C)c1.N#C[N-]C#N.N#C[N-]C#N,No changes
WYElD,333.15,101.0,1124.8,Yang et al. (2019b),Liquid,0.8985,1-methyl-3-(3-(trimethylammonio)propyl)-1H-imidazolium bis(dicyanamide),,,C[n+]1ccn(CCC[N+](C)(C)C)c1.N#C[N-]C#N.N#C[N-]C#N,1-methyl-3-(3-(trimethylammonio)propyl)-1H-imidazolium bis(dicyanamide),ABIhVd,CC(C)O,propan-2-ol,AALcwx,,,3,,,,120,False,C[n+]1ccn(CCC[N+](C)(C)C)c1.N#C[N-]C#N.N#C[N-]C#N,No changes
WYElD,333.15,101.0,1133.4,Yang et al. (2019b),Liquid,1.0,1-methyl-3-(3-(trimethylammonio)propyl)-1H-imidazolium bis(dicyanamide),,,C[n+]1ccn(CCC[N+](C)(C)C)c1.N#C[N-]C#N.N#C[N-]C#N,1-methyl-3-(3-(trimethylammonio)propyl)-1H-imidazolium bis(dicyanamide),ABIhVd,CC(C)O,propan-2-ol,AALcwx,,,3,,,,121,False,C[n+]1ccn(CCC[N+](C)(C)C)c1.N#C[N-]C#N.N#C[N-]C#N,No changes
ZVmrr,293.15,100.0,785.4,Rameshi et al. (2020),Liquid,0.0,1-hexyl-3-methylimidazolium nitrate,,,CCCCCC[n+]1ccn(C)c1.O=[N+]([O-])[O-],1-hexyl-3-methylimidazolium nitrate,AAsErb,CC(C)O,propan-2-ol,AALcwx,CCCCCC[n+]1ccn(C)c1,O=[N+]([O-])[O-],2,,,,122,False,CCCCCC[n+]1ccn(C)c1.O=[N+]([O-])[O-],No changes
ZVmrr,293.15,100.0,853.6,Rameshi et al. (2020),Liquid,0.0817,1-hexyl-3-methylimidazolium nitrate,,,CCCCCC[n+]1ccn(C)c1.O=[N+]([O-])[O-],1-hexyl-3-methylimidazolium nitrate,AAsErb,CC(C)O,propan-2-ol,AALcwx,CCCCCC[n+]1ccn(C)c1,O=[N+]([O-])[O-],2,,,,123,False,CCCCCC[n+]1ccn(C)c1.O=[N+]([O-])[O-],No changes
ZVmrr,293.15,100.0,904.9,Rameshi et al. (2020),Liquid,0.1594,1-hexyl-3-methylimidazolium nitrate,,,CCCCCC[n+]1ccn(C)c1.O=[N+]([O-])[O-],1-hexyl-3-methylimidazolium nitrate,AAsErb,CC(C)O,propan-2-ol,AALcwx,CCCCCC[n+]1ccn(C)c1,O=[N+]([O-])[O-],2,,,,124,False,CCCCCC[n+]1ccn(C)c1.O=[N+]([O-])[O-],No changes
ZVmrr,293.15,100.0,948.0,Rameshi et al. (2020),Liquid,0.2402,1-hexyl-3-methylimidazolium nitrate,,,CCCCCC[n+]1ccn(C)c1.O=[N+]([O-])[O-],1-hexyl-3-methylimidazolium nitrate,AAsErb,CC(C)O,propan-2-ol,AALcwx,CCCCCC[n+]1ccn(C)c1,O=[N+]([O-])[O-],2,,,,125,False,CCCCCC[n+]1ccn(C)c1.O=[N+]([O-])[O-],No changes
ZVmrr,293.15,100.0,994.1,Rameshi et al. (2020),Liquid,0.3493,1-hexyl-3-methylimidazolium nitrate,,,CCCCCC[n+]1ccn(C)c1.O=[N+]([O-])[O-],1-hexyl-3-methylimidazolium nitrate,AAsErb,CC(C)O,propan-2-ol,AALcwx,CCCCCC[n+]1ccn(C)c1,O=[N+]([O-])[O-],2,,,,126,False,CCCCCC[n+]1ccn(C)c1.O=[N+]([O-])[O-],No changes
ZVmrr,293.15,100.0,1024.7,Rameshi et al. (2020),Liquid,0.4408,1-hexyl-3-methylimidazolium nitrate,,,CCCCCC[n+]1ccn(C)c1.O=[N+]([O-])[O-],1-hexyl-3-methylimidazolium nitrate,AAsErb,CC(C)O,propan-2-ol,AALcwx,CCCCCC[n+]1ccn(C)c1,O=[N+]([O-])[O-],2,,,,127,False,CCCCCC[n+]1ccn(C)c1.O=[N+]([O-])[O-],No changes
ZVmrr,293.15,100.0,1055.9,Rameshi et al. (2020),Liquid,0.5609,1-hexyl-3-methylimidazolium nitrate,,,CCCCCC[n+]1ccn(C)c1.O=[N+]([O-])[O-],1-hexyl-3-methylimidazolium nitrate,AAsErb,CC(C)O,propan-2-ol,AALcwx,CCCCCC[n+]1ccn(C)c1,O=[N+]([O-])[O-],2,,,,128,False,CCCCCC[n+]1ccn(C)c1.O=[N+]([O-])[O-],No changes
ZVmrr,293.15,100.0,1074.5,Rameshi et al. (2020),Liquid,0.6502,1-hexyl-3-methylimidazolium nitrate,,,CCCCCC[n+]1ccn(C)c1.O=[N+]([O-])[O-],1-hexyl-3-methylimidazolium nitrate,AAsErb,CC(C)O,propan-2-ol,AALcwx,CCCCCC[n+]1ccn(C)c1,O=[N+]([O-])[O-],2,,,,129,False,CCCCCC[n+]1ccn(C)c1.O=[N+]([O-])[O-],No changes
ZVmrr,293.15,100.0,1090.3,Rameshi et al. (2020),Liquid,0.7417,1-hexyl-3-methylimidazolium nitrate,,,CCCCCC[n+]1ccn(C)c1.O=[N+]([O-])[O-],1-hexyl-3-methylimidazolium nitrate,AAsErb,CC(C)O,propan-2-ol,AALcwx,CCCCCC[n+]1ccn(C)c1,O=[N+]([O-])[O-],2,,,,130,False,CCCCCC[n+]1ccn(C)c1.O=[N+]([O-])[O-],No changes
ZVmrr,293.15,100.0,1105.5,Rameshi et al. (2020),Liquid,0.8518,1-hexyl-3-methylimidazolium nitrate,,,CCCCCC[n+]1ccn(C)c1.O=[N+]([O-])[O-],1-hexyl-3-methylimidazolium nitrate,AAsErb,CC(C)O,propan-2-ol,AALcwx,CCCCCC[n+]1ccn(C)c1,O=[N+]([O-])[O-],2,,,,131,False,CCCCCC[n+]1ccn(C)c1.O=[N+]([O-])[O-],No changes
ZVmrr,293.15,100.0,1115.0,Rameshi et al. (2020),Liquid,0.9396,1-hexyl-3-methylimidazolium nitrate,,,CCCCCC[n+]1ccn(C)c1.O=[N+]([O-])[O-],1-hexyl-3-methylimidazolium nitrate,AAsErb,CC(C)O,propan-2-ol,AALcwx,CCCCCC[n+]1ccn(C)c1,O=[N+]([O-])[O-],2,,,,132,False,CCCCCC[n+]1ccn(C)c1.O=[N+]([O-])[O-],No changes
ZVmrr,293.15,100.0,1120.3,Rameshi et al. (2020),Liquid,1.0,1-hexyl-3-methylimidazolium nitrate,,,CCCCCC[n+]1ccn(C)c1.O=[N+]([O-])[O-],1-hexyl-3-methylimidazolium nitrate,AAsErb,CC(C)O,propan-2-ol,AALcwx,CCCCCC[n+]1ccn(C)c1,O=[N+]([O-])[O-],2,,,,133,False,CCCCCC[n+]1ccn(C)c1.O=[N+]([O-])[O-],No changes
ZVmrr,298.15,100.0,781.1,Rameshi et al. (2020),Liquid,0.0,1-hexyl-3-methylimidazolium nitrate,,,CCCCCC[n+]1ccn(C)c1.O=[N+]([O-])[O-],1-hexyl-3-methylimidazolium nitrate,AAsErb,CC(C)O,propan-2-ol,AALcwx,CCCCCC[n+]1ccn(C)c1,O=[N+]([O-])[O-],2,,,,134,False,CCCCCC[n+]1ccn(C)c1.O=[N+]([O-])[O-],No changes
ZVmrr,298.15,100.0,848.8,Rameshi et al. (2020),Liquid,0.0817,1-hexyl-3-methylimidazolium nitrate,,,CCCCCC[n+]1ccn(C)c1.O=[N+]([O-])[O-],1-hexyl-3-methylimidazolium nitrate,AAsErb,CC(C)O,propan-2-ol,AALcwx,CCCCCC[n+]1ccn(C)c1,O=[N+]([O-])[O-],2,,,,135,False,CCCCCC[n+]1ccn(C)c1.O=[N+]([O-])[O-],No changes
ZVmrr,298.15,100.0,899.9,Rameshi et al. (2020),Liquid,0.1594,1-hexyl-3-methylimidazolium nitrate,,,CCCCCC[n+]1ccn(C)c1.O=[N+]([O-])[O-],1-hexyl-3-methylimidazolium nitrate,AAsErb,CC(C)O,propan-2-ol,AALcwx,CCCCCC[n+]1ccn(C)c1,O=[N+]([O-])[O-],2,,,,136,False,CCCCCC[n+]1ccn(C)c1.O=[N+]([O-])[O-],No changes
ZVmrr,298.15,100.0,943.1,Rameshi et al. (2020),Liquid,0.2402,1-hexyl-3-methylimidazolium nitrate,,,CCCCCC[n+]1ccn(C)c1.O=[N+]([O-])[O-],1-hexyl-3-methylimidazolium nitrate,AAsErb,CC(C)O,propan-2-ol,AALcwx,CCCCCC[n+]1ccn(C)c1,O=[N+]([O-])[O-],2,,,,137,False,CCCCCC[n+]1ccn(C)c1.O=[N+]([O-])[O-],No changes
ZVmrr,298.15,100.0,989.1,Rameshi et al. (2020),Liquid,0.3493,1-hexyl-3-methylimidazolium nitrate,,,CCCCCC[n+]1ccn(C)c1.O=[N+]([O-])[O-],1-hexyl-3-methylimidazolium nitrate,AAsErb,CC(C)O,propan-2-ol,AALcwx,CCCCCC[n+]1ccn(C)c1,O=[N+]([O-])[O-],2,,,,138,False,CCCCCC[n+]1ccn(C)c1.O=[N+]([O-])[O-],No changes
ZVmrr,298.15,100.0,1019.6,Rameshi et al. (2020),Liquid,0.4408,1-hexyl-3-methylimidazolium nitrate,,,CCCCCC[n+]1ccn(C)c1.O=[N+]([O-])[O-],1-hexyl-3-methylimidazolium nitrate,AAsErb,CC(C)O,propan-2-ol,AALcwx,CCCCCC[n+]1ccn(C)c1,O=[N+]([O-])[O-],2,,,,139,False,CCCCCC[n+]1ccn(C)c1.O=[N+]([O-])[O-],No changes
ZVmrr,298.15,100.0,1051.1,Rameshi et al. (2020),Liquid,0.5609,1-hexyl-3-methylimidazolium nitrate,,,CCCCCC[n+]1ccn(C)c1.O=[N+]([O-])[O-],1-hexyl-3-methylimidazolium nitrate,AAsErb,CC(C)O,propan-2-ol,AALcwx,CCCCCC[n+]1ccn(C)c1,O=[N+]([O-])[O-],2,,,,140,False,CCCCCC[n+]1ccn(C)c1.O=[N+]([O-])[O-],No changes
ZVmrr,298.15,100.0,1069.8,Rameshi et al. (2020),Liquid,0.6502,1-hexyl-3-methylimidazolium nitrate,,,CCCCCC[n+]1ccn(C)c1.O=[N+]([O-])[O-],1-hexyl-3-methylimidazolium nitrate,AAsErb,CC(C)O,propan-2-ol,AALcwx,CCCCCC[n+]1ccn(C)c1,O=[N+]([O-])[O-],2,,,,141,False,CCCCCC[n+]1ccn(C)c1.O=[N+]([O-])[O-],No changes
ZVmrr,298.15,100.0,1085.9,Rameshi et al. (2020),Liquid,0.7417,1-hexyl-3-methylimidazolium nitrate,,,CCCCCC[n+]1ccn(C)c1.O=[N+]([O-])[O-],1-hexyl-3-methylimidazolium nitrate,AAsErb,CC(C)O,propan-2-ol,AALcwx,CCCCCC[n+]1ccn(C)c1,O=[N+]([O-])[O-],2,,,,142,False,CCCCCC[n+]1ccn(C)c1.O=[N+]([O-])[O-],No changes
ZVmrr,298.15,100.0,1101.5,Rameshi et al. (2020),Liquid,0.8518,1-hexyl-3-methylimidazolium nitrate,,,CCCCCC[n+]1ccn(C)c1.O=[N+]([O-])[O-],1-hexyl-3-methylimidazolium nitrate,AAsErb,CC(C)O,propan-2-ol,AALcwx,CCCCCC[n+]1ccn(C)c1,O=[N+]([O-])[O-],2,,,,143,False,CCCCCC[n+]1ccn(C)c1.O=[N+]([O-])[O-],No changes
ZVmrr,298.15,100.0,1111.6,Rameshi et al. (2020),Liquid,0.9396,1-hexyl-3-methylimidazolium nitrate,,,CCCCCC[n+]1ccn(C)c1.O=[N+]([O-])[O-],1-hexyl-3-methylimidazolium nitrate,AAsErb,CC(C)O,propan-2-ol,AALcwx,CCCCCC[n+]1ccn(C)c1,O=[N+]([O-])[O-],2,,,,144,False,CCCCCC[n+]1ccn(C)c1.O=[N+]([O-])[O-],No changes
ZVmrr,298.15,100.0,1117.5,Rameshi et al. (2020),Liquid,1.0,1-hexyl-3-methylimidazolium nitrate,,,CCCCCC[n+]1ccn(C)c1.O=[N+]([O-])[O-],1-hexyl-3-methylimidazolium nitrate,AAsErb,CC(C)O,propan-2-ol,AALcwx,CCCCCC[n+]1ccn(C)c1,O=[N+]([O-])[O-],2,,,,145,False,CCCCCC[n+]1ccn(C)c1.O=[N+]([O-])[O-],No changes
ZVmrr,303.15,100.0,776.8,Rameshi et al. (2020),Liquid,0.0,1-hexyl-3-methylimidazolium nitrate,,,CCCCCC[n+]1ccn(C)c1.O=[N+]([O-])[O-],1-hexyl-3-methylimidazolium nitrate,AAsErb,CC(C)O,propan-2-ol,AALcwx,CCCCCC[n+]1ccn(C)c1,O=[N+]([O-])[O-],2,,,,146,False,CCCCCC[n+]1ccn(C)c1.O=[N+]([O-])[O-],No changes
ZVmrr,303.15,100.0,844.3,Rameshi et al. (2020),Liquid,0.0817,1-hexyl-3-methylimidazolium nitrate,,,CCCCCC[n+]1ccn(C)c1.O=[N+]([O-])[O-],1-hexyl-3-methylimidazolium nitrate,AAsErb,CC(C)O,propan-2-ol,AALcwx,CCCCCC[n+]1ccn(C)c1,O=[N+]([O-])[O-],2,,,,147,False,CCCCCC[n+]1ccn(C)c1.O=[N+]([O-])[O-],No changes
ZVmrr,303.15,100.0,895.3,Rameshi et al. (2020),Liquid,0.1594,1-hexyl-3-methylimidazolium nitrate,,,CCCCCC[n+]1ccn(C)c1.O=[N+]([O-])[O-],1-hexyl-3-methylimidazolium nitrate,AAsErb,CC(C)O,propan-2-ol,AALcwx,CCCCCC[n+]1ccn(C)c1,O=[N+]([O-])[O-],2,,,,148,False,CCCCCC[n+]1ccn(C)c1.O=[N+]([O-])[O-],No changes
ZVmrr,303.15,100.0,938.2,Rameshi et al. (2020),Liquid,0.2402,1-hexyl-3-methylimidazolium nitrate,,,CCCCCC[n+]1ccn(C)c1.O=[N+]([O-])[O-],1-hexyl-3-methylimidazolium nitrate,AAsErb,CC(C)O,propan-2-ol,AALcwx,CCCCCC[n+]1ccn(C)c1,O=[N+]([O-])[O-],2,,,,149,False,CCCCCC[n+]1ccn(C)c1.O=[N+]([O-])[O-],No changes
ZVmrr,303.15,100.0,983.9,Rameshi et al. (2020),Liquid,0.3493,1-hexyl-3-methylimidazolium nitrate,,,CCCCCC[n+]1ccn(C)c1.O=[N+]([O-])[O-],1-hexyl-3-methylimidazolium nitrate,AAsErb,CC(C)O,propan-2-ol,AALcwx,CCCCCC[n+]1ccn(C)c1,O=[N+]([O-])[O-],2,,,,150,False,CCCCCC[n+]1ccn(C)c1.O=[N+]([O-])[O-],No changes
ZVmrr,303.15,100.0,1014.3,Rameshi et al. (2020),Liquid,0.4408,1-hexyl-3-methylimidazolium nitrate,,,CCCCCC[n+]1ccn(C)c1.O=[N+]([O-])[O-],1-hexyl-3-methylimidazolium nitrate,AAsErb,CC(C)O,propan-2-ol,AALcwx,CCCCCC[n+]1ccn(C)c1,O=[N+]([O-])[O-],2,,,,151,False,CCCCCC[n+]1ccn(C)c1.O=[N+]([O-])[O-],No changes
ZVmrr,303.15,100.0,1045.9,Rameshi et al. (2020),Liquid,0.5609,1-hexyl-3-methylimidazolium nitrate,,,CCCCCC[n+]1ccn(C)c1.O=[N+]([O-])[O-],1-hexyl-3-methylimidazolium nitrate,AAsErb,CC(C)O,propan-2-ol,AALcwx,CCCCCC[n+]1ccn(C)c1,O=[N+]([O-])[O-],2,,,,152,False,CCCCCC[n+]1ccn(C)c1.O=[N+]([O-])[O-],No changes
ZVmrr,303.15,100.0,1064.9,Rameshi et al. (2020),Liquid,0.6502,1-hexyl-3-methylimidazolium nitrate,,,CCCCCC[n+]1ccn(C)c1.O=[N+]([O-])[O-],1-hexyl-3-methylimidazolium nitrate,AAsErb,CC(C)O,propan-2-ol,AALcwx,CCCCCC[n+]1ccn(C)c1,O=[N+]([O-])[O-],2,,,,153,False,CCCCCC[n+]1ccn(C)c1.O=[N+]([O-])[O-],No changes
ZVmrr,303.15,100.0,1081.2,Rameshi et al. (2020),Liquid,0.7417,1-hexyl-3-methylimidazolium nitrate,,,CCCCCC[n+]1ccn(C)c1.O=[N+]([O-])[O-],1-hexyl-3-methylimidazolium nitrate,AAsErb,CC(C)O,propan-2-ol,AALcwx,CCCCCC[n+]1ccn(C)c1,O=[N+]([O-])[O-],2,,,,154,False,CCCCCC[n+]1ccn(C)c1.O=[N+]([O-])[O-],No changes
ZVmrr,303.15,100.0,1097.4,Rameshi et al. (2020),Liquid,0.8518,1-hexyl-3-methylimidazolium nitrate,,,CCCCCC[n+]1ccn(C)c1.O=[N+]([O-])[O-],1-hexyl-3-methylimidazolium nitrate,AAsErb,CC(C)O,propan-2-ol,AALcwx,CCCCCC[n+]1ccn(C)c1,O=[N+]([O-])[O-],2,,,,155,False,CCCCCC[n+]1ccn(C)c1.O=[N+]([O-])[O-],No changes
ZVmrr,303.15,100.0,1108.0,Rameshi et al. (2020),Liquid,0.9396,1-hexyl-3-methylimidazolium nitrate,,,CCCCCC[n+]1ccn(C)c1.O=[N+]([O-])[O-],1-hexyl-3-methylimidazolium nitrate,AAsErb,CC(C)O,propan-2-ol,AALcwx,CCCCCC[n+]1ccn(C)c1,O=[N+]([O-])[O-],2,,,,156,False,CCCCCC[n+]1ccn(C)c1.O=[N+]([O-])[O-],No changes
ZVmrr,303.15,100.0,1114.3,Rameshi et al. (2020),Liquid,1.0,1-hexyl-3-methylimidazolium nitrate,,,CCCCCC[n+]1ccn(C)c1.O=[N+]([O-])[O-],1-hexyl-3-methylimidazolium nitrate,AAsErb,CC(C)O,propan-2-ol,AALcwx,CCCCCC[n+]1ccn(C)c1,O=[N+]([O-])[O-],2,,,,157,False,CCCCCC[n+]1ccn(C)c1.O=[N+]([O-])[O-],No changes
ZVmrr,308.15,100.0,772.4,Rameshi et al. (2020),Liquid,0.0,1-hexyl-3-methylimidazolium nitrate,,,CCCCCC[n+]1ccn(C)c1.O=[N+]([O-])[O-],1-hexyl-3-methylimidazolium nitrate,AAsErb,CC(C)O,propan-2-ol,AALcwx,CCCCCC[n+]1ccn(C)c1,O=[N+]([O-])[O-],2,,,,158,False,CCCCCC[n+]1ccn(C)c1.O=[N+]([O-])[O-],No changes
ZVmrr,308.15,100.0,839.5,Rameshi et al. (2020),Liquid,0.0817,1-hexyl-3-methylimidazolium nitrate,,,CCCCCC[n+]1ccn(C)c1.O=[N+]([O-])[O-],1-hexyl-3-methylimidazolium nitrate,AAsErb,CC(C)O,propan-2-ol,AALcwx,CCCCCC[n+]1ccn(C)c1,O=[N+]([O-])[O-],2,,,,159,False,CCCCCC[n+]1ccn(C)c1.O=[N+]([O-])[O-],No changes
ZVmrr,308.15,100.0,890.3,Rameshi et al. (2020),Liquid,0.1594,1-hexyl-3-methylimidazolium nitrate,,,CCCCCC[n+]1ccn(C)c1.O=[N+]([O-])[O-],1-hexyl-3-methylimidazolium nitrate,AAsErb,CC(C)O,propan-2-ol,AALcwx,CCCCCC[n+]1ccn(C)c1,O=[N+]([O-])[O-],2,,,,160,False,CCCCCC[n+]1ccn(C)c1.O=[N+]([O-])[O-],No changes
ZVmrr,308.15,100.0,932.9,Rameshi et al. (2020),Liquid,0.2402,1-hexyl-3-methylimidazolium nitrate,,,CCCCCC[n+]1ccn(C)c1.O=[N+]([O-])[O-],1-hexyl-3-methylimidazolium nitrate,AAsErb,CC(C)O,propan-2-ol,AALcwx,CCCCCC[n+]1ccn(C)c1,O=[N+]([O-])[O-],2,,,,161,False,CCCCCC[n+]1ccn(C)c1.O=[N+]([O-])[O-],No changes
ZVmrr,308.15,100.0,978.6,Rameshi et al. (2020),Liquid,0.3493,1-hexyl-3-methylimidazolium nitrate,,,CCCCCC[n+]1ccn(C)c1.O=[N+]([O-])[O-],1-hexyl-3-methylimidazolium nitrate,AAsErb,CC(C)O,propan-2-ol,AALcwx,CCCCCC[n+]1ccn(C)c1,O=[N+]([O-])[O-],2,,,,162,False,CCCCCC[n+]1ccn(C)c1.O=[N+]([O-])[O-],No changes
ZVmrr,308.15,100.0,1009.0,Rameshi et al. (2020),Liquid,0.4408,1-hexyl-3-methylimidazolium nitrate,,,CCCCCC[n+]1ccn(C)c1.O=[N+]([O-])[O-],1-hexyl-3-methylimidazolium nitrate,AAsErb,CC(C)O,propan-2-ol,AALcwx,CCCCCC[n+]1ccn(C)c1,O=[N+]([O-])[O-],2,,,,163,False,CCCCCC[n+]1ccn(C)c1.O=[N+]([O-])[O-],No changes
ZVmrr,308.15,100.0,1040.8,Rameshi et al. (2020),Liquid,0.5609,1-hexyl-3-methylimidazolium nitrate,,,CCCCCC[n+]1ccn(C)c1.O=[N+]([O-])[O-],1-hexyl-3-methylimidazolium nitrate,AAsErb,CC(C)O,propan-2-ol,AALcwx,CCCCCC[n+]1ccn(C)c1,O=[N+]([O-])[O-],2,,,,164,False,CCCCCC[n+]1ccn(C)c1.O=[N+]([O-])[O-],No changes
ZVmrr,308.15,100.0,1060.2,Rameshi et al. (2020),Liquid,0.6502,1-hexyl-3-methylimidazolium nitrate,,,CCCCCC[n+]1ccn(C)c1.O=[N+]([O-])[O-],1-hexyl-3-methylimidazolium nitrate,AAsErb,CC(C)O,propan-2-ol,AALcwx,CCCCCC[n+]1ccn(C)c1,O=[N+]([O-])[O-],2,,,,165,False,CCCCCC[n+]1ccn(C)c1.O=[N+]([O-])[O-],No changes
ZVmrr,308.15,100.0,1076.8,Rameshi et al. (2020),Liquid,0.7417,1-hexyl-3-methylimidazolium nitrate,,,CCCCCC[n+]1ccn(C)c1.O=[N+]([O-])[O-],1-hexyl-3-methylimidazolium nitrate,AAsErb,CC(C)O,propan-2-ol,AALcwx,CCCCCC[n+]1ccn(C)c1,O=[N+]([O-])[O-],2,,,,166,False,CCCCCC[n+]1ccn(C)c1.O=[N+]([O-])[O-],No changes
ZVmrr,308.15,100.0,1093.5,Rameshi et al. (2020),Liquid,0.8518,1-hexyl-3-methylimidazolium nitrate,,,CCCCCC[n+]1ccn(C)c1.O=[N+]([O-])[O-],1-hexyl-3-methylimidazolium nitrate,AAsErb,CC(C)O,propan-2-ol,AALcwx,CCCCCC[n+]1ccn(C)c1,O=[N+]([O-])[O-],2,,,,167,False,CCCCCC[n+]1ccn(C)c1.O=[N+]([O-])[O-],No changes