setid,Temperature (K),Pressure (kPa),Density (kg/m3),reference,phases,Mole fraction,Mole fraction of compound name,Weight fraction,Weight fraction of compound name,IL_SMILES,IL_name,IL_ID,Solvent_SMILES,Solvent_name,Solvent_ID,IL_cation_SMILES,IL_anion_SMILES,IL_component_number,Mole fraction of solvent,IL_MW,Solvent_MW,Record_ID,Contains_Metal,Standardized_IL_SMILES,Changes
CCeUz,323.15,101.0,1166.21,Garcia-Mardones et al. (2012b),Liquid,0.7963,1-butylpyridinium tetrafluoroborate,,,CCCC[n+]1ccccc1.F[B-](F)(F)F,1-butylpyridinium tetrafluoroborate,AAquMR,CCO,ethanol,AAIsrh,CCCC[n+]1ccccc1,F[B-](F)(F)F,2,,,,2791,False,CCCC[n+]1ccccc1.F[B-](F)(F)F,No changes
CCeUz,323.15,101.0,1174.82,Garcia-Mardones et al. (2012b),Liquid,0.8477,1-butylpyridinium tetrafluoroborate,,,CCCC[n+]1ccccc1.F[B-](F)(F)F,1-butylpyridinium tetrafluoroborate,AAquMR,CCO,ethanol,AAIsrh,CCCC[n+]1ccccc1,F[B-](F)(F)F,2,,,,2792,False,CCCC[n+]1ccccc1.F[B-](F)(F)F,No changes
CCeUz,323.15,101.0,1182.65,Garcia-Mardones et al. (2012b),Liquid,0.8984,1-butylpyridinium tetrafluoroborate,,,CCCC[n+]1ccccc1.F[B-](F)(F)F,1-butylpyridinium tetrafluoroborate,AAquMR,CCO,ethanol,AAIsrh,CCCC[n+]1ccccc1,F[B-](F)(F)F,2,,,,2793,False,CCCC[n+]1ccccc1.F[B-](F)(F)F,No changes
CCeUz,323.15,101.0,1189.47,Garcia-Mardones et al. (2012b),Liquid,0.9461,1-butylpyridinium tetrafluoroborate,,,CCCC[n+]1ccccc1.F[B-](F)(F)F,1-butylpyridinium tetrafluoroborate,AAquMR,CCO,ethanol,AAIsrh,CCCC[n+]1ccccc1,F[B-](F)(F)F,2,,,,2794,False,CCCC[n+]1ccccc1.F[B-](F)(F)F,No changes
WsdOm,298.15,101.0,897.2,Rilo et al. (2009),Liquid,0.0986,1-butyl-3-methylimidazolium tetrafluoroborate,,,CCCC[n+]1ccn(C)c1.F[B-](F)(F)F,1-butyl-3-methylimidazolium tetrafluoroborate,AArYBF,CCO,ethanol,AAIsrh,CCCC[n+]1ccn(C)c1,F[B-](F)(F)F,2,,,,2795,False,CCCC[n+]1ccn(C)c1.F[B-](F)(F)F,No changes
WsdOm,298.15,101.0,977.4,Rilo et al. (2009),Liquid,0.2002,1-butyl-3-methylimidazolium tetrafluoroborate,,,CCCC[n+]1ccn(C)c1.F[B-](F)(F)F,1-butyl-3-methylimidazolium tetrafluoroborate,AArYBF,CCO,ethanol,AAIsrh,CCCC[n+]1ccn(C)c1,F[B-](F)(F)F,2,,,,2796,False,CCCC[n+]1ccn(C)c1.F[B-](F)(F)F,No changes
WsdOm,298.15,101.0,1010.7,Rilo et al. (2009),Liquid,0.2553,1-butyl-3-methylimidazolium tetrafluoroborate,,,CCCC[n+]1ccn(C)c1.F[B-](F)(F)F,1-butyl-3-methylimidazolium tetrafluoroborate,AArYBF,CCO,ethanol,AAIsrh,CCCC[n+]1ccn(C)c1,F[B-](F)(F)F,2,,,,2797,False,CCCC[n+]1ccn(C)c1.F[B-](F)(F)F,No changes
WsdOm,298.15,101.0,1027.9,Rilo et al. (2009),Liquid,0.2881,1-butyl-3-methylimidazolium tetrafluoroborate,,,CCCC[n+]1ccn(C)c1.F[B-](F)(F)F,1-butyl-3-methylimidazolium tetrafluoroborate,AArYBF,CCO,ethanol,AAIsrh,CCCC[n+]1ccn(C)c1,F[B-](F)(F)F,2,,,,2798,False,CCCC[n+]1ccn(C)c1.F[B-](F)(F)F,No changes
WsdOm,298.15,101.0,1046.8,Rilo et al. (2009),Liquid,0.3284,1-butyl-3-methylimidazolium tetrafluoroborate,,,CCCC[n+]1ccn(C)c1.F[B-](F)(F)F,1-butyl-3-methylimidazolium tetrafluoroborate,AArYBF,CCO,ethanol,AAIsrh,CCCC[n+]1ccn(C)c1,F[B-](F)(F)F,2,,,,2799,False,CCCC[n+]1ccn(C)c1.F[B-](F)(F)F,No changes
WsdOm,298.15,101.0,1075.5,Rilo et al. (2009),Liquid,0.3999,1-butyl-3-methylimidazolium tetrafluoroborate,,,CCCC[n+]1ccn(C)c1.F[B-](F)(F)F,1-butyl-3-methylimidazolium tetrafluoroborate,AArYBF,CCO,ethanol,AAIsrh,CCCC[n+]1ccn(C)c1,F[B-](F)(F)F,2,,,,2800,False,CCCC[n+]1ccn(C)c1.F[B-](F)(F)F,No changes
WsdOm,298.15,101.0,1082.7,Rilo et al. (2009),Liquid,0.4202,1-butyl-3-methylimidazolium tetrafluoroborate,,,CCCC[n+]1ccn(C)c1.F[B-](F)(F)F,1-butyl-3-methylimidazolium tetrafluoroborate,AArYBF,CCO,ethanol,AAIsrh,CCCC[n+]1ccn(C)c1,F[B-](F)(F)F,2,,,,2801,False,CCCC[n+]1ccn(C)c1.F[B-](F)(F)F,No changes
WsdOm,298.15,101.0,1108.6,Rilo et al. (2009),Liquid,0.5024,1-butyl-3-methylimidazolium tetrafluoroborate,,,CCCC[n+]1ccn(C)c1.F[B-](F)(F)F,1-butyl-3-methylimidazolium tetrafluoroborate,AArYBF,CCO,ethanol,AAIsrh,CCCC[n+]1ccn(C)c1,F[B-](F)(F)F,2,,,,2802,False,CCCC[n+]1ccn(C)c1.F[B-](F)(F)F,No changes
WsdOm,298.15,101.0,1135.9,Rilo et al. (2009),Liquid,0.6082,1-butyl-3-methylimidazolium tetrafluoroborate,,,CCCC[n+]1ccn(C)c1.F[B-](F)(F)F,1-butyl-3-methylimidazolium tetrafluoroborate,AArYBF,CCO,ethanol,AAIsrh,CCCC[n+]1ccn(C)c1,F[B-](F)(F)F,2,,,,2803,False,CCCC[n+]1ccn(C)c1.F[B-](F)(F)F,No changes
WsdOm,298.15,101.0,1157.4,Rilo et al. (2009),Liquid,0.7107,1-butyl-3-methylimidazolium tetrafluoroborate,,,CCCC[n+]1ccn(C)c1.F[B-](F)(F)F,1-butyl-3-methylimidazolium tetrafluoroborate,AArYBF,CCO,ethanol,AAIsrh,CCCC[n+]1ccn(C)c1,F[B-](F)(F)F,2,,,,2804,False,CCCC[n+]1ccn(C)c1.F[B-](F)(F)F,No changes
WsdOm,298.15,101.0,1173.7,Rilo et al. (2009),Liquid,0.804,1-butyl-3-methylimidazolium tetrafluoroborate,,,CCCC[n+]1ccn(C)c1.F[B-](F)(F)F,1-butyl-3-methylimidazolium tetrafluoroborate,AArYBF,CCO,ethanol,AAIsrh,CCCC[n+]1ccn(C)c1,F[B-](F)(F)F,2,,,,2805,False,CCCC[n+]1ccn(C)c1.F[B-](F)(F)F,No changes
WsdOm,298.15,101.0,1188.8,Rilo et al. (2009),Liquid,0.9059,1-butyl-3-methylimidazolium tetrafluoroborate,,,CCCC[n+]1ccn(C)c1.F[B-](F)(F)F,1-butyl-3-methylimidazolium tetrafluoroborate,AArYBF,CCO,ethanol,AAIsrh,CCCC[n+]1ccn(C)c1,F[B-](F)(F)F,2,,,,2806,False,CCCC[n+]1ccn(C)c1.F[B-](F)(F)F,No changes
WsdOm,298.15,101.0,1201.2,Rilo et al. (2009),Liquid,1.0,1-butyl-3-methylimidazolium tetrafluoroborate,,,CCCC[n+]1ccn(C)c1.F[B-](F)(F)F,1-butyl-3-methylimidazolium tetrafluoroborate,AArYBF,CCO,ethanol,AAIsrh,CCCC[n+]1ccn(C)c1,F[B-](F)(F)F,2,,,,2807,False,CCCC[n+]1ccn(C)c1.F[B-](F)(F)F,No changes
rSlAb,298.15,101.0,1102.0,Quijada et al. (2012),Liquid,1.0,ethanol,,,CC[n+]1ccn(C)c1.N#C[N-]C#N,1-ethyl-3-methylimidazolium dicyanamide,AAiEIE,CCO,ethanol,AAIsrh,CC[n+]1ccn(C)c1,N#C[N-]C#N,2,0.0,,,2808,False,CC[n+]1ccn(C)c1.N#C[N-]C#N,No changes
rSlAb,298.15,101.0,1091.3,Quijada et al. (2012),Liquid,0.898,ethanol,,,CC[n+]1ccn(C)c1.N#C[N-]C#N,1-ethyl-3-methylimidazolium dicyanamide,AAiEIE,CCO,ethanol,AAIsrh,CC[n+]1ccn(C)c1,N#C[N-]C#N,2,0.102,,,2809,False,CC[n+]1ccn(C)c1.N#C[N-]C#N,No changes
rSlAb,298.15,101.0,1079.7,Quijada et al. (2012),Liquid,0.8019000000000001,ethanol,,,CC[n+]1ccn(C)c1.N#C[N-]C#N,1-ethyl-3-methylimidazolium dicyanamide,AAiEIE,CCO,ethanol,AAIsrh,CC[n+]1ccn(C)c1,N#C[N-]C#N,2,0.1981,,,2810,False,CC[n+]1ccn(C)c1.N#C[N-]C#N,No changes
rSlAb,298.15,101.0,1069.3,Quijada et al. (2012),Liquid,0.721,ethanol,,,CC[n+]1ccn(C)c1.N#C[N-]C#N,1-ethyl-3-methylimidazolium dicyanamide,AAiEIE,CCO,ethanol,AAIsrh,CC[n+]1ccn(C)c1,N#C[N-]C#N,2,0.279,,,2811,False,CC[n+]1ccn(C)c1.N#C[N-]C#N,No changes
rSlAb,298.15,101.0,1055.7,Quijada et al. (2012),Liquid,0.6404000000000001,ethanol,,,CC[n+]1ccn(C)c1.N#C[N-]C#N,1-ethyl-3-methylimidazolium dicyanamide,AAiEIE,CCO,ethanol,AAIsrh,CC[n+]1ccn(C)c1,N#C[N-]C#N,2,0.3596,,,2812,False,CC[n+]1ccn(C)c1.N#C[N-]C#N,No changes
rSlAb,298.15,101.0,1033.9,Quijada et al. (2012),Liquid,0.5259,ethanol,,,CC[n+]1ccn(C)c1.N#C[N-]C#N,1-ethyl-3-methylimidazolium dicyanamide,AAiEIE,CCO,ethanol,AAIsrh,CC[n+]1ccn(C)c1,N#C[N-]C#N,2,0.4741,,,2813,False,CC[n+]1ccn(C)c1.N#C[N-]C#N,No changes
rSlAb,298.15,101.0,1001.8,Quijada et al. (2012),Liquid,0.3972,ethanol,,,CC[n+]1ccn(C)c1.N#C[N-]C#N,1-ethyl-3-methylimidazolium dicyanamide,AAiEIE,CCO,ethanol,AAIsrh,CC[n+]1ccn(C)c1,N#C[N-]C#N,2,0.6028,,,2814,False,CC[n+]1ccn(C)c1.N#C[N-]C#N,No changes
rSlAb,298.15,101.0,975.2,Quijada et al. (2012),Liquid,0.3133,ethanol,,,CC[n+]1ccn(C)c1.N#C[N-]C#N,1-ethyl-3-methylimidazolium dicyanamide,AAiEIE,CCO,ethanol,AAIsrh,CC[n+]1ccn(C)c1,N#C[N-]C#N,2,0.6867,,,2815,False,CC[n+]1ccn(C)c1.N#C[N-]C#N,No changes
rSlAb,298.15,101.0,942.9,Quijada et al. (2012),Liquid,0.2321999999999999,ethanol,,,CC[n+]1ccn(C)c1.N#C[N-]C#N,1-ethyl-3-methylimidazolium dicyanamide,AAiEIE,CCO,ethanol,AAIsrh,CC[n+]1ccn(C)c1,N#C[N-]C#N,2,0.7678,,,2816,False,CC[n+]1ccn(C)c1.N#C[N-]C#N,No changes
rSlAb,298.15,101.0,901.4,Quijada et al. (2012),Liquid,0.1497,ethanol,,,CC[n+]1ccn(C)c1.N#C[N-]C#N,1-ethyl-3-methylimidazolium dicyanamide,AAiEIE,CCO,ethanol,AAIsrh,CC[n+]1ccn(C)c1,N#C[N-]C#N,2,0.8503,,,2817,False,CC[n+]1ccn(C)c1.N#C[N-]C#N,No changes
rSlAb,298.15,101.0,846.4,Quijada et al. (2012),Liquid,0.0673,ethanol,,,CC[n+]1ccn(C)c1.N#C[N-]C#N,1-ethyl-3-methylimidazolium dicyanamide,AAiEIE,CCO,ethanol,AAIsrh,CC[n+]1ccn(C)c1,N#C[N-]C#N,2,0.9327,,,2818,False,CC[n+]1ccn(C)c1.N#C[N-]C#N,No changes
rSlAb,298.15,101.0,785.1,Quijada et al. (2012),Liquid,0.0,ethanol,,,CC[n+]1ccn(C)c1.N#C[N-]C#N,1-ethyl-3-methylimidazolium dicyanamide,AAiEIE,CCO,ethanol,AAIsrh,CC[n+]1ccn(C)c1,N#C[N-]C#N,2,1.0,,,2819,False,CC[n+]1ccn(C)c1.N#C[N-]C#N,No changes
rSlAb,313.15,101.0,1092.1,Quijada et al. (2012),Liquid,1.0,ethanol,,,CC[n+]1ccn(C)c1.N#C[N-]C#N,1-ethyl-3-methylimidazolium dicyanamide,AAiEIE,CCO,ethanol,AAIsrh,CC[n+]1ccn(C)c1,N#C[N-]C#N,2,0.0,,,2820,False,CC[n+]1ccn(C)c1.N#C[N-]C#N,No changes
rSlAb,313.15,101.0,1081.3,Quijada et al. (2012),Liquid,0.898,ethanol,,,CC[n+]1ccn(C)c1.N#C[N-]C#N,1-ethyl-3-methylimidazolium dicyanamide,AAiEIE,CCO,ethanol,AAIsrh,CC[n+]1ccn(C)c1,N#C[N-]C#N,2,0.102,,,2821,False,CC[n+]1ccn(C)c1.N#C[N-]C#N,No changes
rSlAb,313.15,101.0,1069.7,Quijada et al. (2012),Liquid,0.8019000000000001,ethanol,,,CC[n+]1ccn(C)c1.N#C[N-]C#N,1-ethyl-3-methylimidazolium dicyanamide,AAiEIE,CCO,ethanol,AAIsrh,CC[n+]1ccn(C)c1,N#C[N-]C#N,2,0.1981,,,2822,False,CC[n+]1ccn(C)c1.N#C[N-]C#N,No changes
rSlAb,313.15,101.0,1059.2,Quijada et al. (2012),Liquid,0.721,ethanol,,,CC[n+]1ccn(C)c1.N#C[N-]C#N,1-ethyl-3-methylimidazolium dicyanamide,AAiEIE,CCO,ethanol,AAIsrh,CC[n+]1ccn(C)c1,N#C[N-]C#N,2,0.279,,,2823,False,CC[n+]1ccn(C)c1.N#C[N-]C#N,No changes
rSlAb,313.15,101.0,1045.6,Quijada et al. (2012),Liquid,0.6404000000000001,ethanol,,,CC[n+]1ccn(C)c1.N#C[N-]C#N,1-ethyl-3-methylimidazolium dicyanamide,AAiEIE,CCO,ethanol,AAIsrh,CC[n+]1ccn(C)c1,N#C[N-]C#N,2,0.3596,,,2824,False,CC[n+]1ccn(C)c1.N#C[N-]C#N,No changes
rSlAb,313.15,101.0,1023.7,Quijada et al. (2012),Liquid,0.5259,ethanol,,,CC[n+]1ccn(C)c1.N#C[N-]C#N,1-ethyl-3-methylimidazolium dicyanamide,AAiEIE,CCO,ethanol,AAIsrh,CC[n+]1ccn(C)c1,N#C[N-]C#N,2,0.4741,,,2825,False,CC[n+]1ccn(C)c1.N#C[N-]C#N,No changes
rSlAb,313.15,101.0,991.4,Quijada et al. (2012),Liquid,0.3972,ethanol,,,CC[n+]1ccn(C)c1.N#C[N-]C#N,1-ethyl-3-methylimidazolium dicyanamide,AAiEIE,CCO,ethanol,AAIsrh,CC[n+]1ccn(C)c1,N#C[N-]C#N,2,0.6028,,,2826,False,CC[n+]1ccn(C)c1.N#C[N-]C#N,No changes
rSlAb,313.15,101.0,964.5,Quijada et al. (2012),Liquid,0.3133,ethanol,,,CC[n+]1ccn(C)c1.N#C[N-]C#N,1-ethyl-3-methylimidazolium dicyanamide,AAiEIE,CCO,ethanol,AAIsrh,CC[n+]1ccn(C)c1,N#C[N-]C#N,2,0.6867,,,2827,False,CC[n+]1ccn(C)c1.N#C[N-]C#N,No changes
rSlAb,313.15,101.0,931.9,Quijada et al. (2012),Liquid,0.2321999999999999,ethanol,,,CC[n+]1ccn(C)c1.N#C[N-]C#N,1-ethyl-3-methylimidazolium dicyanamide,AAiEIE,CCO,ethanol,AAIsrh,CC[n+]1ccn(C)c1,N#C[N-]C#N,2,0.7678,,,2828,False,CC[n+]1ccn(C)c1.N#C[N-]C#N,No changes
rSlAb,313.15,101.0,890.0,Quijada et al. (2012),Liquid,0.1497,ethanol,,,CC[n+]1ccn(C)c1.N#C[N-]C#N,1-ethyl-3-methylimidazolium dicyanamide,AAiEIE,CCO,ethanol,AAIsrh,CC[n+]1ccn(C)c1,N#C[N-]C#N,2,0.8503,,,2829,False,CC[n+]1ccn(C)c1.N#C[N-]C#N,No changes
rSlAb,313.15,101.0,834.2,Quijada et al. (2012),Liquid,0.0673,ethanol,,,CC[n+]1ccn(C)c1.N#C[N-]C#N,1-ethyl-3-methylimidazolium dicyanamide,AAiEIE,CCO,ethanol,AAIsrh,CC[n+]1ccn(C)c1,N#C[N-]C#N,2,0.9327,,,2830,False,CC[n+]1ccn(C)c1.N#C[N-]C#N,No changes
rSlAb,313.15,101.0,772.0,Quijada et al. (2012),Liquid,0.0,ethanol,,,CC[n+]1ccn(C)c1.N#C[N-]C#N,1-ethyl-3-methylimidazolium dicyanamide,AAiEIE,CCO,ethanol,AAIsrh,CC[n+]1ccn(C)c1,N#C[N-]C#N,2,1.0,,,2831,False,CC[n+]1ccn(C)c1.N#C[N-]C#N,No changes
rSlAb,328.15,101.0,1082.4,Quijada et al. (2012),Liquid,1.0,ethanol,,,CC[n+]1ccn(C)c1.N#C[N-]C#N,1-ethyl-3-methylimidazolium dicyanamide,AAiEIE,CCO,ethanol,AAIsrh,CC[n+]1ccn(C)c1,N#C[N-]C#N,2,0.0,,,2832,False,CC[n+]1ccn(C)c1.N#C[N-]C#N,No changes
rSlAb,328.15,101.0,1071.6,Quijada et al. (2012),Liquid,0.898,ethanol,,,CC[n+]1ccn(C)c1.N#C[N-]C#N,1-ethyl-3-methylimidazolium dicyanamide,AAiEIE,CCO,ethanol,AAIsrh,CC[n+]1ccn(C)c1,N#C[N-]C#N,2,0.102,,,2833,False,CC[n+]1ccn(C)c1.N#C[N-]C#N,No changes
rSlAb,328.15,101.0,1059.9,Quijada et al. (2012),Liquid,0.8019000000000001,ethanol,,,CC[n+]1ccn(C)c1.N#C[N-]C#N,1-ethyl-3-methylimidazolium dicyanamide,AAiEIE,CCO,ethanol,AAIsrh,CC[n+]1ccn(C)c1,N#C[N-]C#N,2,0.1981,,,2834,False,CC[n+]1ccn(C)c1.N#C[N-]C#N,No changes
rSlAb,328.15,101.0,1049.3,Quijada et al. (2012),Liquid,0.721,ethanol,,,CC[n+]1ccn(C)c1.N#C[N-]C#N,1-ethyl-3-methylimidazolium dicyanamide,AAiEIE,CCO,ethanol,AAIsrh,CC[n+]1ccn(C)c1,N#C[N-]C#N,2,0.279,,,2835,False,CC[n+]1ccn(C)c1.N#C[N-]C#N,No changes
rSlAb,328.15,101.0,1035.6,Quijada et al. (2012),Liquid,0.6404000000000001,ethanol,,,CC[n+]1ccn(C)c1.N#C[N-]C#N,1-ethyl-3-methylimidazolium dicyanamide,AAiEIE,CCO,ethanol,AAIsrh,CC[n+]1ccn(C)c1,N#C[N-]C#N,2,0.3596,,,2836,False,CC[n+]1ccn(C)c1.N#C[N-]C#N,No changes
rSlAb,328.15,101.0,1013.6,Quijada et al. (2012),Liquid,0.5259,ethanol,,,CC[n+]1ccn(C)c1.N#C[N-]C#N,1-ethyl-3-methylimidazolium dicyanamide,AAiEIE,CCO,ethanol,AAIsrh,CC[n+]1ccn(C)c1,N#C[N-]C#N,2,0.4741,,,2837,False,CC[n+]1ccn(C)c1.N#C[N-]C#N,No changes
rSlAb,328.15,101.0,981.0,Quijada et al. (2012),Liquid,0.3972,ethanol,,,CC[n+]1ccn(C)c1.N#C[N-]C#N,1-ethyl-3-methylimidazolium dicyanamide,AAiEIE,CCO,ethanol,AAIsrh,CC[n+]1ccn(C)c1,N#C[N-]C#N,2,0.6028,,,2838,False,CC[n+]1ccn(C)c1.N#C[N-]C#N,No changes
rSlAb,328.15,101.0,953.9,Quijada et al. (2012),Liquid,0.3133,ethanol,,,CC[n+]1ccn(C)c1.N#C[N-]C#N,1-ethyl-3-methylimidazolium dicyanamide,AAiEIE,CCO,ethanol,AAIsrh,CC[n+]1ccn(C)c1,N#C[N-]C#N,2,0.6867,,,2839,False,CC[n+]1ccn(C)c1.N#C[N-]C#N,No changes
rSlAb,328.15,101.0,920.9,Quijada et al. (2012),Liquid,0.2321999999999999,ethanol,,,CC[n+]1ccn(C)c1.N#C[N-]C#N,1-ethyl-3-methylimidazolium dicyanamide,AAiEIE,CCO,ethanol,AAIsrh,CC[n+]1ccn(C)c1,N#C[N-]C#N,2,0.7678,,,2840,False,CC[n+]1ccn(C)c1.N#C[N-]C#N,No changes
rSlAb,328.15,101.0,878.5,Quijada et al. (2012),Liquid,0.1497,ethanol,,,CC[n+]1ccn(C)c1.N#C[N-]C#N,1-ethyl-3-methylimidazolium dicyanamide,AAiEIE,CCO,ethanol,AAIsrh,CC[n+]1ccn(C)c1,N#C[N-]C#N,2,0.8503,,,2841,False,CC[n+]1ccn(C)c1.N#C[N-]C#N,No changes
rSlAb,328.15,101.0,822.0,Quijada et al. (2012),Liquid,0.0673,ethanol,,,CC[n+]1ccn(C)c1.N#C[N-]C#N,1-ethyl-3-methylimidazolium dicyanamide,AAiEIE,CCO,ethanol,AAIsrh,CC[n+]1ccn(C)c1,N#C[N-]C#N,2,0.9327,,,2842,False,CC[n+]1ccn(C)c1.N#C[N-]C#N,No changes
rSlAb,328.15,101.0,758.6,Quijada et al. (2012),Liquid,0.0,ethanol,,,CC[n+]1ccn(C)c1.N#C[N-]C#N,1-ethyl-3-methylimidazolium dicyanamide,AAiEIE,CCO,ethanol,AAIsrh,CC[n+]1ccn(C)c1,N#C[N-]C#N,2,1.0,,,2843,False,CC[n+]1ccn(C)c1.N#C[N-]C#N,No changes
rSlAb,343.15,101.0,1072.77,Quijada et al. (2012),Liquid,1.0,ethanol,,,CC[n+]1ccn(C)c1.N#C[N-]C#N,1-ethyl-3-methylimidazolium dicyanamide,AAiEIE,CCO,ethanol,AAIsrh,CC[n+]1ccn(C)c1,N#C[N-]C#N,2,0.0,,,2844,False,CC[n+]1ccn(C)c1.N#C[N-]C#N,No changes
rSlAb,343.15,101.0,1061.9,Quijada et al. (2012),Liquid,0.898,ethanol,,,CC[n+]1ccn(C)c1.N#C[N-]C#N,1-ethyl-3-methylimidazolium dicyanamide,AAiEIE,CCO,ethanol,AAIsrh,CC[n+]1ccn(C)c1,N#C[N-]C#N,2,0.102,,,2845,False,CC[n+]1ccn(C)c1.N#C[N-]C#N,No changes
rSlAb,343.15,101.0,1050.2,Quijada et al. (2012),Liquid,0.8019000000000001,ethanol,,,CC[n+]1ccn(C)c1.N#C[N-]C#N,1-ethyl-3-methylimidazolium dicyanamide,AAiEIE,CCO,ethanol,AAIsrh,CC[n+]1ccn(C)c1,N#C[N-]C#N,2,0.1981,,,2846,False,CC[n+]1ccn(C)c1.N#C[N-]C#N,No changes
rSlAb,343.15,101.0,1039.6,Quijada et al. (2012),Liquid,0.721,ethanol,,,CC[n+]1ccn(C)c1.N#C[N-]C#N,1-ethyl-3-methylimidazolium dicyanamide,AAiEIE,CCO,ethanol,AAIsrh,CC[n+]1ccn(C)c1,N#C[N-]C#N,2,0.279,,,2847,False,CC[n+]1ccn(C)c1.N#C[N-]C#N,No changes
rSlAb,343.15,101.0,1025.8,Quijada et al. (2012),Liquid,0.6404000000000001,ethanol,,,CC[n+]1ccn(C)c1.N#C[N-]C#N,1-ethyl-3-methylimidazolium dicyanamide,AAiEIE,CCO,ethanol,AAIsrh,CC[n+]1ccn(C)c1,N#C[N-]C#N,2,0.3596,,,2848,False,CC[n+]1ccn(C)c1.N#C[N-]C#N,No changes
rSlAb,343.15,101.0,1003.6,Quijada et al. (2012),Liquid,0.5259,ethanol,,,CC[n+]1ccn(C)c1.N#C[N-]C#N,1-ethyl-3-methylimidazolium dicyanamide,AAiEIE,CCO,ethanol,AAIsrh,CC[n+]1ccn(C)c1,N#C[N-]C#N,2,0.4741,,,2849,False,CC[n+]1ccn(C)c1.N#C[N-]C#N,No changes
rSlAb,343.15,101.0,970.7,Quijada et al. (2012),Liquid,0.3972,ethanol,,,CC[n+]1ccn(C)c1.N#C[N-]C#N,1-ethyl-3-methylimidazolium dicyanamide,AAiEIE,CCO,ethanol,AAIsrh,CC[n+]1ccn(C)c1,N#C[N-]C#N,2,0.6028,,,2850,False,CC[n+]1ccn(C)c1.N#C[N-]C#N,No changes
rSlAb,343.15,101.0,943.3,Quijada et al. (2012),Liquid,0.3133,ethanol,,,CC[n+]1ccn(C)c1.N#C[N-]C#N,1-ethyl-3-methylimidazolium dicyanamide,AAiEIE,CCO,ethanol,AAIsrh,CC[n+]1ccn(C)c1,N#C[N-]C#N,2,0.6867,,,2851,False,CC[n+]1ccn(C)c1.N#C[N-]C#N,No changes
rSlAb,343.15,101.0,909.9,Quijada et al. (2012),Liquid,0.2321999999999999,ethanol,,,CC[n+]1ccn(C)c1.N#C[N-]C#N,1-ethyl-3-methylimidazolium dicyanamide,AAiEIE,CCO,ethanol,AAIsrh,CC[n+]1ccn(C)c1,N#C[N-]C#N,2,0.7678,,,2852,False,CC[n+]1ccn(C)c1.N#C[N-]C#N,No changes
rSlAb,343.15,101.0,866.9,Quijada et al. (2012),Liquid,0.1497,ethanol,,,CC[n+]1ccn(C)c1.N#C[N-]C#N,1-ethyl-3-methylimidazolium dicyanamide,AAiEIE,CCO,ethanol,AAIsrh,CC[n+]1ccn(C)c1,N#C[N-]C#N,2,0.8503,,,2853,False,CC[n+]1ccn(C)c1.N#C[N-]C#N,No changes
rSlAb,343.15,101.0,809.4,Quijada et al. (2012),Liquid,0.0673,ethanol,,,CC[n+]1ccn(C)c1.N#C[N-]C#N,1-ethyl-3-methylimidazolium dicyanamide,AAiEIE,CCO,ethanol,AAIsrh,CC[n+]1ccn(C)c1,N#C[N-]C#N,2,0.9327,,,2854,False,CC[n+]1ccn(C)c1.N#C[N-]C#N,No changes
rSlAb,343.15,101.0,744.5,Quijada et al. (2012),Liquid,0.0,ethanol,,,CC[n+]1ccn(C)c1.N#C[N-]C#N,1-ethyl-3-methylimidazolium dicyanamide,AAiEIE,CCO,ethanol,AAIsrh,CC[n+]1ccn(C)c1,N#C[N-]C#N,2,1.0,,,2855,False,CC[n+]1ccn(C)c1.N#C[N-]C#N,No changes
oqWVb,293.15,101.0,789.6,Garcia-Miaja et al. (2007),Liquid,0.0,1-butyl-3-methylpyridinium tetrafluoroborate,,,CCCC[n+]1cccc(C)c1.F[B-](F)(F)F,1-butyl-3-methylpyridinium tetrafluoroborate,AAtejH,CCO,ethanol,AAIsrh,CCCC[n+]1cccc(C)c1,F[B-](F)(F)F,2,,,,2856,False,CCCC[n+]1cccc(C)c1.F[B-](F)(F)F,No changes
oqWVb,293.15,101.0,800.5,Garcia-Miaja et al. (2007),Liquid,0.0073,1-butyl-3-methylpyridinium tetrafluoroborate,,,CCCC[n+]1cccc(C)c1.F[B-](F)(F)F,1-butyl-3-methylpyridinium tetrafluoroborate,AAtejH,CCO,ethanol,AAIsrh,CCCC[n+]1cccc(C)c1,F[B-](F)(F)F,2,,,,2857,False,CCCC[n+]1cccc(C)c1.F[B-](F)(F)F,No changes
oqWVb,293.15,101.0,807.8,Garcia-Miaja et al. (2007),Liquid,0.0126,1-butyl-3-methylpyridinium tetrafluoroborate,,,CCCC[n+]1cccc(C)c1.F[B-](F)(F)F,1-butyl-3-methylpyridinium tetrafluoroborate,AAtejH,CCO,ethanol,AAIsrh,CCCC[n+]1cccc(C)c1,F[B-](F)(F)F,2,,,,2858,False,CCCC[n+]1cccc(C)c1.F[B-](F)(F)F,No changes
oqWVb,293.15,101.0,821.5,Garcia-Miaja et al. (2007),Liquid,0.0231,1-butyl-3-methylpyridinium tetrafluoroborate,,,CCCC[n+]1cccc(C)c1.F[B-](F)(F)F,1-butyl-3-methylpyridinium tetrafluoroborate,AAtejH,CCO,ethanol,AAIsrh,CCCC[n+]1cccc(C)c1,F[B-](F)(F)F,2,,,,2859,False,CCCC[n+]1cccc(C)c1.F[B-](F)(F)F,No changes
oqWVb,293.15,101.0,855.1,Garcia-Miaja et al. (2007),Liquid,0.0512,1-butyl-3-methylpyridinium tetrafluoroborate,,,CCCC[n+]1cccc(C)c1.F[B-](F)(F)F,1-butyl-3-methylpyridinium tetrafluoroborate,AAtejH,CCO,ethanol,AAIsrh,CCCC[n+]1cccc(C)c1,F[B-](F)(F)F,2,,,,2860,False,CCCC[n+]1cccc(C)c1.F[B-](F)(F)F,No changes
oqWVb,293.15,101.0,904.1,Garcia-Miaja et al. (2007),Liquid,0.1003,1-butyl-3-methylpyridinium tetrafluoroborate,,,CCCC[n+]1cccc(C)c1.F[B-](F)(F)F,1-butyl-3-methylpyridinium tetrafluoroborate,AAtejH,CCO,ethanol,AAIsrh,CCCC[n+]1cccc(C)c1,F[B-](F)(F)F,2,,,,2861,False,CCCC[n+]1cccc(C)c1.F[B-](F)(F)F,No changes
oqWVb,293.15,101.0,1010.3,Garcia-Miaja et al. (2007),Liquid,0.2569,1-butyl-3-methylpyridinium tetrafluoroborate,,,CCCC[n+]1cccc(C)c1.F[B-](F)(F)F,1-butyl-3-methylpyridinium tetrafluoroborate,AAtejH,CCO,ethanol,AAIsrh,CCCC[n+]1cccc(C)c1,F[B-](F)(F)F,2,,,,2862,False,CCCC[n+]1cccc(C)c1.F[B-](F)(F)F,No changes