setid,Temperature (K),Pressure (kPa),Density (kg/m3),reference,phases,Mole fraction,Mole fraction of compound name,Weight fraction,Weight fraction of compound name,IL_SMILES,IL_name,IL_ID,Solvent_SMILES,Solvent_name,Solvent_ID,IL_cation_SMILES,IL_anion_SMILES,IL_component_number,Mole fraction of solvent,IL_MW,Solvent_MW,Record_ID,Contains_Metal,Standardized_IL_SMILES,Changes
JjJsp,298.15,100.0,1202.5,Gonzalez et al. (2008a),Liquid,0.9078,ethanol,,,CCCC[n+]1ccn(C)c1.COS(=O)(=O)[O-],1-butyl-3-methylimidazolium methyl sulfate,AAwHNg,CCO,ethanol,AAIsrh,CCCC[n+]1ccn(C)c1,COS(=O)(=O)[O-],2,0.0922,,,2722,False,CCCC[n+]1ccn(C)c1.COS(=O)(=O)[O-],No changes
JjJsp,298.15,100.0,1187.4,Gonzalez et al. (2008a),Liquid,0.7988999999999999,ethanol,,,CCCC[n+]1ccn(C)c1.COS(=O)(=O)[O-],1-butyl-3-methylimidazolium methyl sulfate,AAwHNg,CCO,ethanol,AAIsrh,CCCC[n+]1ccn(C)c1,COS(=O)(=O)[O-],2,0.2011,,,2723,False,CCCC[n+]1ccn(C)c1.COS(=O)(=O)[O-],No changes
JjJsp,298.15,100.0,1169.2,Gonzalez et al. (2008a),Liquid,0.6909000000000001,ethanol,,,CCCC[n+]1ccn(C)c1.COS(=O)(=O)[O-],1-butyl-3-methylimidazolium methyl sulfate,AAwHNg,CCO,ethanol,AAIsrh,CCCC[n+]1ccn(C)c1,COS(=O)(=O)[O-],2,0.3091,,,2724,False,CCCC[n+]1ccn(C)c1.COS(=O)(=O)[O-],No changes
JjJsp,298.15,100.0,1150.1,Gonzalez et al. (2008a),Liquid,0.598,ethanol,,,CCCC[n+]1ccn(C)c1.COS(=O)(=O)[O-],1-butyl-3-methylimidazolium methyl sulfate,AAwHNg,CCO,ethanol,AAIsrh,CCCC[n+]1ccn(C)c1,COS(=O)(=O)[O-],2,0.402,,,2725,False,CCCC[n+]1ccn(C)c1.COS(=O)(=O)[O-],No changes
JjJsp,298.15,100.0,1127.6,Gonzalez et al. (2008a),Liquid,0.509,ethanol,,,CCCC[n+]1ccn(C)c1.COS(=O)(=O)[O-],1-butyl-3-methylimidazolium methyl sulfate,AAwHNg,CCO,ethanol,AAIsrh,CCCC[n+]1ccn(C)c1,COS(=O)(=O)[O-],2,0.491,,,2726,False,CCCC[n+]1ccn(C)c1.COS(=O)(=O)[O-],No changes
JjJsp,298.15,100.0,1100.78,Gonzalez et al. (2008a),Liquid,0.4212,ethanol,,,CCCC[n+]1ccn(C)c1.COS(=O)(=O)[O-],1-butyl-3-methylimidazolium methyl sulfate,AAwHNg,CCO,ethanol,AAIsrh,CCCC[n+]1ccn(C)c1,COS(=O)(=O)[O-],2,0.5788,,,2727,False,CCCC[n+]1ccn(C)c1.COS(=O)(=O)[O-],No changes
JjJsp,298.15,100.0,1043.7,Gonzalez et al. (2008a),Liquid,0.2858,ethanol,,,CCCC[n+]1ccn(C)c1.COS(=O)(=O)[O-],1-butyl-3-methylimidazolium methyl sulfate,AAwHNg,CCO,ethanol,AAIsrh,CCCC[n+]1ccn(C)c1,COS(=O)(=O)[O-],2,0.7142,,,2728,False,CCCC[n+]1ccn(C)c1.COS(=O)(=O)[O-],No changes
JjJsp,298.15,100.0,989.09,Gonzalez et al. (2008a),Liquid,0.1929999999999999,ethanol,,,CCCC[n+]1ccn(C)c1.COS(=O)(=O)[O-],1-butyl-3-methylimidazolium methyl sulfate,AAwHNg,CCO,ethanol,AAIsrh,CCCC[n+]1ccn(C)c1,COS(=O)(=O)[O-],2,0.807,,,2729,False,CCCC[n+]1ccn(C)c1.COS(=O)(=O)[O-],No changes
JjJsp,298.15,100.0,917.29,Gonzalez et al. (2008a),Liquid,0.1049999999999999,ethanol,,,CCCC[n+]1ccn(C)c1.COS(=O)(=O)[O-],1-butyl-3-methylimidazolium methyl sulfate,AAwHNg,CCO,ethanol,AAIsrh,CCCC[n+]1ccn(C)c1,COS(=O)(=O)[O-],2,0.895,,,2730,False,CCCC[n+]1ccn(C)c1.COS(=O)(=O)[O-],No changes
JjJsp,298.15,100.0,863.52,Gonzalez et al. (2008a),Liquid,0.0554999999999999,ethanol,,,CCCC[n+]1ccn(C)c1.COS(=O)(=O)[O-],1-butyl-3-methylimidazolium methyl sulfate,AAwHNg,CCO,ethanol,AAIsrh,CCCC[n+]1ccn(C)c1,COS(=O)(=O)[O-],2,0.9445,,,2731,False,CCCC[n+]1ccn(C)c1.COS(=O)(=O)[O-],No changes
JjJsp,298.15,100.0,785.46,Gonzalez et al. (2008a),Liquid,0.0,ethanol,,,CCCC[n+]1ccn(C)c1.COS(=O)(=O)[O-],1-butyl-3-methylimidazolium methyl sulfate,AAwHNg,CCO,ethanol,AAIsrh,CCCC[n+]1ccn(C)c1,COS(=O)(=O)[O-],2,1.0,,,2732,False,CCCC[n+]1ccn(C)c1.COS(=O)(=O)[O-],No changes
JjJsp,313.15,100.0,1203.5,Gonzalez et al. (2008a),Liquid,1.0,ethanol,,,CCCC[n+]1ccn(C)c1.COS(=O)(=O)[O-],1-butyl-3-methylimidazolium methyl sulfate,AAwHNg,CCO,ethanol,AAIsrh,CCCC[n+]1ccn(C)c1,COS(=O)(=O)[O-],2,0.0,,,2733,False,CCCC[n+]1ccn(C)c1.COS(=O)(=O)[O-],No changes
JjJsp,313.15,100.0,1195.7,Gonzalez et al. (2008a),Liquid,0.9349,ethanol,,,CCCC[n+]1ccn(C)c1.COS(=O)(=O)[O-],1-butyl-3-methylimidazolium methyl sulfate,AAwHNg,CCO,ethanol,AAIsrh,CCCC[n+]1ccn(C)c1,COS(=O)(=O)[O-],2,0.0651,,,2734,False,CCCC[n+]1ccn(C)c1.COS(=O)(=O)[O-],No changes
JjJsp,313.15,100.0,1192.4,Gonzalez et al. (2008a),Liquid,0.9078,ethanol,,,CCCC[n+]1ccn(C)c1.COS(=O)(=O)[O-],1-butyl-3-methylimidazolium methyl sulfate,AAwHNg,CCO,ethanol,AAIsrh,CCCC[n+]1ccn(C)c1,COS(=O)(=O)[O-],2,0.0922,,,2735,False,CCCC[n+]1ccn(C)c1.COS(=O)(=O)[O-],No changes
JjJsp,313.15,100.0,1177.2,Gonzalez et al. (2008a),Liquid,0.7988999999999999,ethanol,,,CCCC[n+]1ccn(C)c1.COS(=O)(=O)[O-],1-butyl-3-methylimidazolium methyl sulfate,AAwHNg,CCO,ethanol,AAIsrh,CCCC[n+]1ccn(C)c1,COS(=O)(=O)[O-],2,0.2011,,,2736,False,CCCC[n+]1ccn(C)c1.COS(=O)(=O)[O-],No changes
JjJsp,313.15,100.0,1158.9,Gonzalez et al. (2008a),Liquid,0.6909000000000001,ethanol,,,CCCC[n+]1ccn(C)c1.COS(=O)(=O)[O-],1-butyl-3-methylimidazolium methyl sulfate,AAwHNg,CCO,ethanol,AAIsrh,CCCC[n+]1ccn(C)c1,COS(=O)(=O)[O-],2,0.3091,,,2737,False,CCCC[n+]1ccn(C)c1.COS(=O)(=O)[O-],No changes
JjJsp,313.15,100.0,1139.6,Gonzalez et al. (2008a),Liquid,0.598,ethanol,,,CCCC[n+]1ccn(C)c1.COS(=O)(=O)[O-],1-butyl-3-methylimidazolium methyl sulfate,AAwHNg,CCO,ethanol,AAIsrh,CCCC[n+]1ccn(C)c1,COS(=O)(=O)[O-],2,0.402,,,2738,False,CCCC[n+]1ccn(C)c1.COS(=O)(=O)[O-],No changes
JjJsp,313.15,100.0,1117.0,Gonzalez et al. (2008a),Liquid,0.509,ethanol,,,CCCC[n+]1ccn(C)c1.COS(=O)(=O)[O-],1-butyl-3-methylimidazolium methyl sulfate,AAwHNg,CCO,ethanol,AAIsrh,CCCC[n+]1ccn(C)c1,COS(=O)(=O)[O-],2,0.491,,,2739,False,CCCC[n+]1ccn(C)c1.COS(=O)(=O)[O-],No changes
JjJsp,313.15,100.0,1089.92,Gonzalez et al. (2008a),Liquid,0.4212,ethanol,,,CCCC[n+]1ccn(C)c1.COS(=O)(=O)[O-],1-butyl-3-methylimidazolium methyl sulfate,AAwHNg,CCO,ethanol,AAIsrh,CCCC[n+]1ccn(C)c1,COS(=O)(=O)[O-],2,0.5788,,,2740,False,CCCC[n+]1ccn(C)c1.COS(=O)(=O)[O-],No changes
JjJsp,313.15,100.0,1032.43,Gonzalez et al. (2008a),Liquid,0.2858,ethanol,,,CCCC[n+]1ccn(C)c1.COS(=O)(=O)[O-],1-butyl-3-methylimidazolium methyl sulfate,AAwHNg,CCO,ethanol,AAIsrh,CCCC[n+]1ccn(C)c1,COS(=O)(=O)[O-],2,0.7142,,,2741,False,CCCC[n+]1ccn(C)c1.COS(=O)(=O)[O-],No changes
JjJsp,313.15,100.0,977.5,Gonzalez et al. (2008a),Liquid,0.1929999999999999,ethanol,,,CCCC[n+]1ccn(C)c1.COS(=O)(=O)[O-],1-butyl-3-methylimidazolium methyl sulfate,AAwHNg,CCO,ethanol,AAIsrh,CCCC[n+]1ccn(C)c1,COS(=O)(=O)[O-],2,0.807,,,2742,False,CCCC[n+]1ccn(C)c1.COS(=O)(=O)[O-],No changes
JjJsp,313.15,100.0,905.22,Gonzalez et al. (2008a),Liquid,0.1049999999999999,ethanol,,,CCCC[n+]1ccn(C)c1.COS(=O)(=O)[O-],1-butyl-3-methylimidazolium methyl sulfate,AAwHNg,CCO,ethanol,AAIsrh,CCCC[n+]1ccn(C)c1,COS(=O)(=O)[O-],2,0.895,,,2743,False,CCCC[n+]1ccn(C)c1.COS(=O)(=O)[O-],No changes
JjJsp,313.15,100.0,851.11,Gonzalez et al. (2008a),Liquid,0.0554999999999999,ethanol,,,CCCC[n+]1ccn(C)c1.COS(=O)(=O)[O-],1-butyl-3-methylimidazolium methyl sulfate,AAwHNg,CCO,ethanol,AAIsrh,CCCC[n+]1ccn(C)c1,COS(=O)(=O)[O-],2,0.9445,,,2744,False,CCCC[n+]1ccn(C)c1.COS(=O)(=O)[O-],No changes
JjJsp,313.15,100.0,772.0,Gonzalez et al. (2008a),Liquid,0.0,ethanol,,,CCCC[n+]1ccn(C)c1.COS(=O)(=O)[O-],1-butyl-3-methylimidazolium methyl sulfate,AAwHNg,CCO,ethanol,AAIsrh,CCCC[n+]1ccn(C)c1,COS(=O)(=O)[O-],2,1.0,,,2745,False,CCCC[n+]1ccn(C)c1.COS(=O)(=O)[O-],No changes
JjJsp,328.15,100.0,1193.6,Gonzalez et al. (2008a),Liquid,1.0,ethanol,,,CCCC[n+]1ccn(C)c1.COS(=O)(=O)[O-],1-butyl-3-methylimidazolium methyl sulfate,AAwHNg,CCO,ethanol,AAIsrh,CCCC[n+]1ccn(C)c1,COS(=O)(=O)[O-],2,0.0,,,2746,False,CCCC[n+]1ccn(C)c1.COS(=O)(=O)[O-],No changes
JjJsp,328.15,100.0,1185.7,Gonzalez et al. (2008a),Liquid,0.9349,ethanol,,,CCCC[n+]1ccn(C)c1.COS(=O)(=O)[O-],1-butyl-3-methylimidazolium methyl sulfate,AAwHNg,CCO,ethanol,AAIsrh,CCCC[n+]1ccn(C)c1,COS(=O)(=O)[O-],2,0.0651,,,2747,False,CCCC[n+]1ccn(C)c1.COS(=O)(=O)[O-],No changes
JjJsp,328.15,100.0,1182.4,Gonzalez et al. (2008a),Liquid,0.9078,ethanol,,,CCCC[n+]1ccn(C)c1.COS(=O)(=O)[O-],1-butyl-3-methylimidazolium methyl sulfate,AAwHNg,CCO,ethanol,AAIsrh,CCCC[n+]1ccn(C)c1,COS(=O)(=O)[O-],2,0.0922,,,2748,False,CCCC[n+]1ccn(C)c1.COS(=O)(=O)[O-],No changes
JjJsp,328.15,100.0,1167.1,Gonzalez et al. (2008a),Liquid,0.7988999999999999,ethanol,,,CCCC[n+]1ccn(C)c1.COS(=O)(=O)[O-],1-butyl-3-methylimidazolium methyl sulfate,AAwHNg,CCO,ethanol,AAIsrh,CCCC[n+]1ccn(C)c1,COS(=O)(=O)[O-],2,0.2011,,,2749,False,CCCC[n+]1ccn(C)c1.COS(=O)(=O)[O-],No changes
JjJsp,328.15,100.0,1148.6,Gonzalez et al. (2008a),Liquid,0.6909000000000001,ethanol,,,CCCC[n+]1ccn(C)c1.COS(=O)(=O)[O-],1-butyl-3-methylimidazolium methyl sulfate,AAwHNg,CCO,ethanol,AAIsrh,CCCC[n+]1ccn(C)c1,COS(=O)(=O)[O-],2,0.3091,,,2750,False,CCCC[n+]1ccn(C)c1.COS(=O)(=O)[O-],No changes
JjJsp,328.15,100.0,1129.1,Gonzalez et al. (2008a),Liquid,0.598,ethanol,,,CCCC[n+]1ccn(C)c1.COS(=O)(=O)[O-],1-butyl-3-methylimidazolium methyl sulfate,AAwHNg,CCO,ethanol,AAIsrh,CCCC[n+]1ccn(C)c1,COS(=O)(=O)[O-],2,0.402,,,2751,False,CCCC[n+]1ccn(C)c1.COS(=O)(=O)[O-],No changes
JjJsp,328.15,100.0,1106.5,Gonzalez et al. (2008a),Liquid,0.509,ethanol,,,CCCC[n+]1ccn(C)c1.COS(=O)(=O)[O-],1-butyl-3-methylimidazolium methyl sulfate,AAwHNg,CCO,ethanol,AAIsrh,CCCC[n+]1ccn(C)c1,COS(=O)(=O)[O-],2,0.491,,,2752,False,CCCC[n+]1ccn(C)c1.COS(=O)(=O)[O-],No changes
JjJsp,328.15,100.0,1079.14,Gonzalez et al. (2008a),Liquid,0.4212,ethanol,,,CCCC[n+]1ccn(C)c1.COS(=O)(=O)[O-],1-butyl-3-methylimidazolium methyl sulfate,AAwHNg,CCO,ethanol,AAIsrh,CCCC[n+]1ccn(C)c1,COS(=O)(=O)[O-],2,0.5788,,,2753,False,CCCC[n+]1ccn(C)c1.COS(=O)(=O)[O-],No changes
JjJsp,328.15,100.0,1021.2,Gonzalez et al. (2008a),Liquid,0.2858,ethanol,,,CCCC[n+]1ccn(C)c1.COS(=O)(=O)[O-],1-butyl-3-methylimidazolium methyl sulfate,AAwHNg,CCO,ethanol,AAIsrh,CCCC[n+]1ccn(C)c1,COS(=O)(=O)[O-],2,0.7142,,,2754,False,CCCC[n+]1ccn(C)c1.COS(=O)(=O)[O-],No changes
JjJsp,328.15,100.0,965.92,Gonzalez et al. (2008a),Liquid,0.1929999999999999,ethanol,,,CCCC[n+]1ccn(C)c1.COS(=O)(=O)[O-],1-butyl-3-methylimidazolium methyl sulfate,AAwHNg,CCO,ethanol,AAIsrh,CCCC[n+]1ccn(C)c1,COS(=O)(=O)[O-],2,0.807,,,2755,False,CCCC[n+]1ccn(C)c1.COS(=O)(=O)[O-],No changes
JjJsp,328.15,100.0,893.02,Gonzalez et al. (2008a),Liquid,0.1049999999999999,ethanol,,,CCCC[n+]1ccn(C)c1.COS(=O)(=O)[O-],1-butyl-3-methylimidazolium methyl sulfate,AAwHNg,CCO,ethanol,AAIsrh,CCCC[n+]1ccn(C)c1,COS(=O)(=O)[O-],2,0.895,,,2756,False,CCCC[n+]1ccn(C)c1.COS(=O)(=O)[O-],No changes
JjJsp,328.15,100.0,838.48,Gonzalez et al. (2008a),Liquid,0.0554999999999999,ethanol,,,CCCC[n+]1ccn(C)c1.COS(=O)(=O)[O-],1-butyl-3-methylimidazolium methyl sulfate,AAwHNg,CCO,ethanol,AAIsrh,CCCC[n+]1ccn(C)c1,COS(=O)(=O)[O-],2,0.9445,,,2757,False,CCCC[n+]1ccn(C)c1.COS(=O)(=O)[O-],No changes
JjJsp,328.15,100.0,758.55,Gonzalez et al. (2008a),Liquid,0.0,ethanol,,,CCCC[n+]1ccn(C)c1.COS(=O)(=O)[O-],1-butyl-3-methylimidazolium methyl sulfate,AAwHNg,CCO,ethanol,AAIsrh,CCCC[n+]1ccn(C)c1,COS(=O)(=O)[O-],2,1.0,,,2758,False,CCCC[n+]1ccn(C)c1.COS(=O)(=O)[O-],No changes
CCeUz,303.15,101.0,843.38,Garcia-Mardones et al. (2012b),Liquid,0.0482,1-butylpyridinium tetrafluoroborate,,,CCCC[n+]1ccccc1.F[B-](F)(F)F,1-butylpyridinium tetrafluoroborate,AAquMR,CCO,ethanol,AAIsrh,CCCC[n+]1ccccc1,F[B-](F)(F)F,2,,,,2759,False,CCCC[n+]1ccccc1.F[B-](F)(F)F,No changes
CCeUz,303.15,101.0,892.42,Garcia-Mardones et al. (2012b),Liquid,0.0945,1-butylpyridinium tetrafluoroborate,,,CCCC[n+]1ccccc1.F[B-](F)(F)F,1-butylpyridinium tetrafluoroborate,AAquMR,CCO,ethanol,AAIsrh,CCCC[n+]1ccccc1,F[B-](F)(F)F,2,,,,2760,False,CCCC[n+]1ccccc1.F[B-](F)(F)F,No changes
CCeUz,303.15,101.0,972.49,Garcia-Mardones et al. (2012b),Liquid,0.1932,1-butylpyridinium tetrafluoroborate,,,CCCC[n+]1ccccc1.F[B-](F)(F)F,1-butylpyridinium tetrafluoroborate,AAquMR,CCO,ethanol,AAIsrh,CCCC[n+]1ccccc1,F[B-](F)(F)F,2,,,,2761,False,CCCC[n+]1ccccc1.F[B-](F)(F)F,No changes
CCeUz,303.15,101.0,1019.05,Garcia-Mardones et al. (2012b),Liquid,0.2702,1-butylpyridinium tetrafluoroborate,,,CCCC[n+]1ccccc1.F[B-](F)(F)F,1-butylpyridinium tetrafluoroborate,AAquMR,CCO,ethanol,AAIsrh,CCCC[n+]1ccccc1,F[B-](F)(F)F,2,,,,2762,False,CCCC[n+]1ccccc1.F[B-](F)(F)F,No changes
CCeUz,303.15,101.0,1076.24,Garcia-Mardones et al. (2012b),Liquid,0.3959,1-butylpyridinium tetrafluoroborate,,,CCCC[n+]1ccccc1.F[B-](F)(F)F,1-butylpyridinium tetrafluoroborate,AAquMR,CCO,ethanol,AAIsrh,CCCC[n+]1ccccc1,F[B-](F)(F)F,2,,,,2763,False,CCCC[n+]1ccccc1.F[B-](F)(F)F,No changes
CCeUz,303.15,101.0,1110.49,Garcia-Mardones et al. (2012b),Liquid,0.4954,1-butylpyridinium tetrafluoroborate,,,CCCC[n+]1ccccc1.F[B-](F)(F)F,1-butylpyridinium tetrafluoroborate,AAquMR,CCO,ethanol,AAIsrh,CCCC[n+]1ccccc1,F[B-](F)(F)F,2,,,,2764,False,CCCC[n+]1ccccc1.F[B-](F)(F)F,No changes
CCeUz,303.15,101.0,1139.33,Garcia-Mardones et al. (2012b),Liquid,0.5999,1-butylpyridinium tetrafluoroborate,,,CCCC[n+]1ccccc1.F[B-](F)(F)F,1-butylpyridinium tetrafluoroborate,AAquMR,CCO,ethanol,AAIsrh,CCCC[n+]1ccccc1,F[B-](F)(F)F,2,,,,2765,False,CCCC[n+]1ccccc1.F[B-](F)(F)F,No changes
CCeUz,303.15,101.0,1161.67,Garcia-Mardones et al. (2012b),Liquid,0.699,1-butylpyridinium tetrafluoroborate,,,CCCC[n+]1ccccc1.F[B-](F)(F)F,1-butylpyridinium tetrafluoroborate,AAquMR,CCO,ethanol,AAIsrh,CCCC[n+]1ccccc1,F[B-](F)(F)F,2,,,,2766,False,CCCC[n+]1ccccc1.F[B-](F)(F)F,No changes
CCeUz,303.15,101.0,1179.99,Garcia-Mardones et al. (2012b),Liquid,0.7963,1-butylpyridinium tetrafluoroborate,,,CCCC[n+]1ccccc1.F[B-](F)(F)F,1-butylpyridinium tetrafluoroborate,AAquMR,CCO,ethanol,AAIsrh,CCCC[n+]1ccccc1,F[B-](F)(F)F,2,,,,2767,False,CCCC[n+]1ccccc1.F[B-](F)(F)F,No changes
CCeUz,303.15,101.0,1188.5,Garcia-Mardones et al. (2012b),Liquid,0.8477,1-butylpyridinium tetrafluoroborate,,,CCCC[n+]1ccccc1.F[B-](F)(F)F,1-butylpyridinium tetrafluoroborate,AAquMR,CCO,ethanol,AAIsrh,CCCC[n+]1ccccc1,F[B-](F)(F)F,2,,,,2768,False,CCCC[n+]1ccccc1.F[B-](F)(F)F,No changes
CCeUz,303.15,101.0,1196.25,Garcia-Mardones et al. (2012b),Liquid,0.8984,1-butylpyridinium tetrafluoroborate,,,CCCC[n+]1ccccc1.F[B-](F)(F)F,1-butylpyridinium tetrafluoroborate,AAquMR,CCO,ethanol,AAIsrh,CCCC[n+]1ccccc1,F[B-](F)(F)F,2,,,,2769,False,CCCC[n+]1ccccc1.F[B-](F)(F)F,No changes
CCeUz,303.15,101.0,1203.06,Garcia-Mardones et al. (2012b),Liquid,0.9461,1-butylpyridinium tetrafluoroborate,,,CCCC[n+]1ccccc1.F[B-](F)(F)F,1-butylpyridinium tetrafluoroborate,AAquMR,CCO,ethanol,AAIsrh,CCCC[n+]1ccccc1,F[B-](F)(F)F,2,,,,2770,False,CCCC[n+]1ccccc1.F[B-](F)(F)F,No changes
CCeUz,313.15,101.0,834.98,Garcia-Mardones et al. (2012b),Liquid,0.0482,1-butylpyridinium tetrafluoroborate,,,CCCC[n+]1ccccc1.F[B-](F)(F)F,1-butylpyridinium tetrafluoroborate,AAquMR,CCO,ethanol,AAIsrh,CCCC[n+]1ccccc1,F[B-](F)(F)F,2,,,,2771,False,CCCC[n+]1ccccc1.F[B-](F)(F)F,No changes
CCeUz,313.15,101.0,884.28,Garcia-Mardones et al. (2012b),Liquid,0.0945,1-butylpyridinium tetrafluoroborate,,,CCCC[n+]1ccccc1.F[B-](F)(F)F,1-butylpyridinium tetrafluoroborate,AAquMR,CCO,ethanol,AAIsrh,CCCC[n+]1ccccc1,F[B-](F)(F)F,2,,,,2772,False,CCCC[n+]1ccccc1.F[B-](F)(F)F,No changes
CCeUz,313.15,101.0,964.73,Garcia-Mardones et al. (2012b),Liquid,0.1932,1-butylpyridinium tetrafluoroborate,,,CCCC[n+]1ccccc1.F[B-](F)(F)F,1-butylpyridinium tetrafluoroborate,AAquMR,CCO,ethanol,AAIsrh,CCCC[n+]1ccccc1,F[B-](F)(F)F,2,,,,2773,False,CCCC[n+]1ccccc1.F[B-](F)(F)F,No changes
CCeUz,313.15,101.0,1011.49,Garcia-Mardones et al. (2012b),Liquid,0.2702,1-butylpyridinium tetrafluoroborate,,,CCCC[n+]1ccccc1.F[B-](F)(F)F,1-butylpyridinium tetrafluoroborate,AAquMR,CCO,ethanol,AAIsrh,CCCC[n+]1ccccc1,F[B-](F)(F)F,2,,,,2774,False,CCCC[n+]1ccccc1.F[B-](F)(F)F,No changes
CCeUz,313.15,101.0,1068.89,Garcia-Mardones et al. (2012b),Liquid,0.3959,1-butylpyridinium tetrafluoroborate,,,CCCC[n+]1ccccc1.F[B-](F)(F)F,1-butylpyridinium tetrafluoroborate,AAquMR,CCO,ethanol,AAIsrh,CCCC[n+]1ccccc1,F[B-](F)(F)F,2,,,,2775,False,CCCC[n+]1ccccc1.F[B-](F)(F)F,No changes
CCeUz,313.15,101.0,1103.28,Garcia-Mardones et al. (2012b),Liquid,0.4954,1-butylpyridinium tetrafluoroborate,,,CCCC[n+]1ccccc1.F[B-](F)(F)F,1-butylpyridinium tetrafluoroborate,AAquMR,CCO,ethanol,AAIsrh,CCCC[n+]1ccccc1,F[B-](F)(F)F,2,,,,2776,False,CCCC[n+]1ccccc1.F[B-](F)(F)F,No changes
CCeUz,313.15,101.0,1132.29,Garcia-Mardones et al. (2012b),Liquid,0.5999,1-butylpyridinium tetrafluoroborate,,,CCCC[n+]1ccccc1.F[B-](F)(F)F,1-butylpyridinium tetrafluoroborate,AAquMR,CCO,ethanol,AAIsrh,CCCC[n+]1ccccc1,F[B-](F)(F)F,2,,,,2777,False,CCCC[n+]1ccccc1.F[B-](F)(F)F,No changes
CCeUz,313.15,101.0,1154.79,Garcia-Mardones et al. (2012b),Liquid,0.699,1-butylpyridinium tetrafluoroborate,,,CCCC[n+]1ccccc1.F[B-](F)(F)F,1-butylpyridinium tetrafluoroborate,AAquMR,CCO,ethanol,AAIsrh,CCCC[n+]1ccccc1,F[B-](F)(F)F,2,,,,2778,False,CCCC[n+]1ccccc1.F[B-](F)(F)F,No changes
CCeUz,313.15,101.0,1173.24,Garcia-Mardones et al. (2012b),Liquid,0.7963,1-butylpyridinium tetrafluoroborate,,,CCCC[n+]1ccccc1.F[B-](F)(F)F,1-butylpyridinium tetrafluoroborate,AAquMR,CCO,ethanol,AAIsrh,CCCC[n+]1ccccc1,F[B-](F)(F)F,2,,,,2779,False,CCCC[n+]1ccccc1.F[B-](F)(F)F,No changes
CCeUz,313.15,101.0,1181.82,Garcia-Mardones et al. (2012b),Liquid,0.8477,1-butylpyridinium tetrafluoroborate,,,CCCC[n+]1ccccc1.F[B-](F)(F)F,1-butylpyridinium tetrafluoroborate,AAquMR,CCO,ethanol,AAIsrh,CCCC[n+]1ccccc1,F[B-](F)(F)F,2,,,,2780,False,CCCC[n+]1ccccc1.F[B-](F)(F)F,No changes
CCeUz,313.15,101.0,1189.62,Garcia-Mardones et al. (2012b),Liquid,0.8984,1-butylpyridinium tetrafluoroborate,,,CCCC[n+]1ccccc1.F[B-](F)(F)F,1-butylpyridinium tetrafluoroborate,AAquMR,CCO,ethanol,AAIsrh,CCCC[n+]1ccccc1,F[B-](F)(F)F,2,,,,2781,False,CCCC[n+]1ccccc1.F[B-](F)(F)F,No changes
CCeUz,313.15,101.0,1196.46,Garcia-Mardones et al. (2012b),Liquid,0.9461,1-butylpyridinium tetrafluoroborate,,,CCCC[n+]1ccccc1.F[B-](F)(F)F,1-butylpyridinium tetrafluoroborate,AAquMR,CCO,ethanol,AAIsrh,CCCC[n+]1ccccc1,F[B-](F)(F)F,2,,,,2782,False,CCCC[n+]1ccccc1.F[B-](F)(F)F,No changes
CCeUz,323.15,101.0,826.69,Garcia-Mardones et al. (2012b),Liquid,0.0482,1-butylpyridinium tetrafluoroborate,,,CCCC[n+]1ccccc1.F[B-](F)(F)F,1-butylpyridinium tetrafluoroborate,AAquMR,CCO,ethanol,AAIsrh,CCCC[n+]1ccccc1,F[B-](F)(F)F,2,,,,2783,False,CCCC[n+]1ccccc1.F[B-](F)(F)F,No changes
CCeUz,323.15,101.0,876.45,Garcia-Mardones et al. (2012b),Liquid,0.0945,1-butylpyridinium tetrafluoroborate,,,CCCC[n+]1ccccc1.F[B-](F)(F)F,1-butylpyridinium tetrafluoroborate,AAquMR,CCO,ethanol,AAIsrh,CCCC[n+]1ccccc1,F[B-](F)(F)F,2,,,,2784,False,CCCC[n+]1ccccc1.F[B-](F)(F)F,No changes
CCeUz,323.15,101.0,957.44,Garcia-Mardones et al. (2012b),Liquid,0.1932,1-butylpyridinium tetrafluoroborate,,,CCCC[n+]1ccccc1.F[B-](F)(F)F,1-butylpyridinium tetrafluoroborate,AAquMR,CCO,ethanol,AAIsrh,CCCC[n+]1ccccc1,F[B-](F)(F)F,2,,,,2785,False,CCCC[n+]1ccccc1.F[B-](F)(F)F,No changes
CCeUz,323.15,101.0,1004.32,Garcia-Mardones et al. (2012b),Liquid,0.2702,1-butylpyridinium tetrafluoroborate,,,CCCC[n+]1ccccc1.F[B-](F)(F)F,1-butylpyridinium tetrafluoroborate,AAquMR,CCO,ethanol,AAIsrh,CCCC[n+]1ccccc1,F[B-](F)(F)F,2,,,,2786,False,CCCC[n+]1ccccc1.F[B-](F)(F)F,No changes
CCeUz,323.15,101.0,1061.7,Garcia-Mardones et al. (2012b),Liquid,0.3959,1-butylpyridinium tetrafluoroborate,,,CCCC[n+]1ccccc1.F[B-](F)(F)F,1-butylpyridinium tetrafluoroborate,AAquMR,CCO,ethanol,AAIsrh,CCCC[n+]1ccccc1,F[B-](F)(F)F,2,,,,2787,False,CCCC[n+]1ccccc1.F[B-](F)(F)F,No changes
CCeUz,323.15,101.0,1096.06,Garcia-Mardones et al. (2012b),Liquid,0.4954,1-butylpyridinium tetrafluoroborate,,,CCCC[n+]1ccccc1.F[B-](F)(F)F,1-butylpyridinium tetrafluoroborate,AAquMR,CCO,ethanol,AAIsrh,CCCC[n+]1ccccc1,F[B-](F)(F)F,2,,,,2788,False,CCCC[n+]1ccccc1.F[B-](F)(F)F,No changes
CCeUz,323.15,101.0,1125.08,Garcia-Mardones et al. (2012b),Liquid,0.5999,1-butylpyridinium tetrafluoroborate,,,CCCC[n+]1ccccc1.F[B-](F)(F)F,1-butylpyridinium tetrafluoroborate,AAquMR,CCO,ethanol,AAIsrh,CCCC[n+]1ccccc1,F[B-](F)(F)F,2,,,,2789,False,CCCC[n+]1ccccc1.F[B-](F)(F)F,No changes
CCeUz,323.15,101.0,1147.65,Garcia-Mardones et al. (2012b),Liquid,0.699,1-butylpyridinium tetrafluoroborate,,,CCCC[n+]1ccccc1.F[B-](F)(F)F,1-butylpyridinium tetrafluoroborate,AAquMR,CCO,ethanol,AAIsrh,CCCC[n+]1ccccc1,F[B-](F)(F)F,2,,,,2790,False,CCCC[n+]1ccccc1.F[B-](F)(F)F,No changes