setid,Temperature (K),Pressure (kPa),Density (kg/m3),reference,phases,Mole fraction,Mole fraction of compound name,Weight fraction,Weight fraction of compound name,IL_SMILES,IL_name,IL_ID,Solvent_SMILES,Solvent_name,Solvent_ID,IL_cation_SMILES,IL_anion_SMILES,IL_component_number,Mole fraction of solvent,IL_MW,Solvent_MW,Record_ID,Contains_Metal,Standardized_IL_SMILES,Changes
HITfU,293.15,101.0,943.11,Iglesias-Otero et al. (2008b),Liquid,0.1479,1-butyl-3-methylimidazolium tetrafluoroborate,,,CCCC[n+]1ccn(C)c1.F[B-](F)(F)F,1-butyl-3-methylimidazolium tetrafluoroborate,AArYBF,CCO,ethanol,AAIsrh,CCCC[n+]1ccn(C)c1,F[B-](F)(F)F,2,,,,1222,False,CCCC[n+]1ccn(C)c1.F[B-](F)(F)F,No changes
HITfU,293.15,101.0,980.07,Iglesias-Otero et al. (2008b),Liquid,0.1995,1-butyl-3-methylimidazolium tetrafluoroborate,,,CCCC[n+]1ccn(C)c1.F[B-](F)(F)F,1-butyl-3-methylimidazolium tetrafluoroborate,AArYBF,CCO,ethanol,AAIsrh,CCCC[n+]1ccn(C)c1,F[B-](F)(F)F,2,,,,1223,False,CCCC[n+]1ccn(C)c1.F[B-](F)(F)F,No changes
HITfU,293.15,101.0,1011.33,Iglesias-Otero et al. (2008b),Liquid,0.2518,1-butyl-3-methylimidazolium tetrafluoroborate,,,CCCC[n+]1ccn(C)c1.F[B-](F)(F)F,1-butyl-3-methylimidazolium tetrafluoroborate,AArYBF,CCO,ethanol,AAIsrh,CCCC[n+]1ccn(C)c1,F[B-](F)(F)F,2,,,,1224,False,CCCC[n+]1ccn(C)c1.F[B-](F)(F)F,No changes
HITfU,293.15,101.0,1046.79,Iglesias-Otero et al. (2008b),Liquid,0.3228,1-butyl-3-methylimidazolium tetrafluoroborate,,,CCCC[n+]1ccn(C)c1.F[B-](F)(F)F,1-butyl-3-methylimidazolium tetrafluoroborate,AArYBF,CCO,ethanol,AAIsrh,CCCC[n+]1ccn(C)c1,F[B-](F)(F)F,2,,,,1225,False,CCCC[n+]1ccn(C)c1.F[B-](F)(F)F,No changes
HITfU,293.15,101.0,1085.81,Iglesias-Otero et al. (2008b),Liquid,0.4219,1-butyl-3-methylimidazolium tetrafluoroborate,,,CCCC[n+]1ccn(C)c1.F[B-](F)(F)F,1-butyl-3-methylimidazolium tetrafluoroborate,AArYBF,CCO,ethanol,AAIsrh,CCCC[n+]1ccn(C)c1,F[B-](F)(F)F,2,,,,1226,False,CCCC[n+]1ccn(C)c1.F[B-](F)(F)F,No changes
HITfU,293.15,101.0,1120.88,Iglesias-Otero et al. (2008b),Liquid,0.5356,1-butyl-3-methylimidazolium tetrafluoroborate,,,CCCC[n+]1ccn(C)c1.F[B-](F)(F)F,1-butyl-3-methylimidazolium tetrafluoroborate,AArYBF,CCO,ethanol,AAIsrh,CCCC[n+]1ccn(C)c1,F[B-](F)(F)F,2,,,,1227,False,CCCC[n+]1ccn(C)c1.F[B-](F)(F)F,No changes
HITfU,293.15,101.0,1142.66,Iglesias-Otero et al. (2008b),Liquid,0.6244,1-butyl-3-methylimidazolium tetrafluoroborate,,,CCCC[n+]1ccn(C)c1.F[B-](F)(F)F,1-butyl-3-methylimidazolium tetrafluoroborate,AArYBF,CCO,ethanol,AAIsrh,CCCC[n+]1ccn(C)c1,F[B-](F)(F)F,2,,,,1228,False,CCCC[n+]1ccn(C)c1.F[B-](F)(F)F,No changes
HITfU,293.15,101.0,1160.24,Iglesias-Otero et al. (2008b),Liquid,0.709,1-butyl-3-methylimidazolium tetrafluoroborate,,,CCCC[n+]1ccn(C)c1.F[B-](F)(F)F,1-butyl-3-methylimidazolium tetrafluoroborate,AArYBF,CCO,ethanol,AAIsrh,CCCC[n+]1ccn(C)c1,F[B-](F)(F)F,2,,,,1229,False,CCCC[n+]1ccn(C)c1.F[B-](F)(F)F,No changes
HITfU,293.15,101.0,1181.36,Iglesias-Otero et al. (2008b),Liquid,0.8295,1-butyl-3-methylimidazolium tetrafluoroborate,,,CCCC[n+]1ccn(C)c1.F[B-](F)(F)F,1-butyl-3-methylimidazolium tetrafluoroborate,AArYBF,CCO,ethanol,AAIsrh,CCCC[n+]1ccn(C)c1,F[B-](F)(F)F,2,,,,1230,False,CCCC[n+]1ccn(C)c1.F[B-](F)(F)F,No changes
HITfU,293.15,101.0,1196.33,Iglesias-Otero et al. (2008b),Liquid,0.9327,1-butyl-3-methylimidazolium tetrafluoroborate,,,CCCC[n+]1ccn(C)c1.F[B-](F)(F)F,1-butyl-3-methylimidazolium tetrafluoroborate,AArYBF,CCO,ethanol,AAIsrh,CCCC[n+]1ccn(C)c1,F[B-](F)(F)F,2,,,,1231,False,CCCC[n+]1ccn(C)c1.F[B-](F)(F)F,No changes
HITfU,293.15,101.0,1204.93,Iglesias-Otero et al. (2008b),Liquid,1.0,1-butyl-3-methylimidazolium tetrafluoroborate,,,CCCC[n+]1ccn(C)c1.F[B-](F)(F)F,1-butyl-3-methylimidazolium tetrafluoroborate,AArYBF,CCO,ethanol,AAIsrh,CCCC[n+]1ccn(C)c1,F[B-](F)(F)F,2,,,,1232,False,CCCC[n+]1ccn(C)c1.F[B-](F)(F)F,No changes
HITfU,303.15,101.0,780.78,Iglesias-Otero et al. (2008b),Liquid,0.0,1-butyl-3-methylimidazolium tetrafluoroborate,,,CCCC[n+]1ccn(C)c1.F[B-](F)(F)F,1-butyl-3-methylimidazolium tetrafluoroborate,AArYBF,CCO,ethanol,AAIsrh,CCCC[n+]1ccn(C)c1,F[B-](F)(F)F,2,,,,1233,False,CCCC[n+]1ccn(C)c1.F[B-](F)(F)F,No changes
HITfU,303.15,101.0,846.27,Iglesias-Otero et al. (2008b),Liquid,0.0517,1-butyl-3-methylimidazolium tetrafluoroborate,,,CCCC[n+]1ccn(C)c1.F[B-](F)(F)F,1-butyl-3-methylimidazolium tetrafluoroborate,AArYBF,CCO,ethanol,AAIsrh,CCCC[n+]1ccn(C)c1,F[B-](F)(F)F,2,,,,1234,False,CCCC[n+]1ccn(C)c1.F[B-](F)(F)F,No changes
HITfU,303.15,101.0,887.54,Iglesias-Otero et al. (2008b),Liquid,0.0918,1-butyl-3-methylimidazolium tetrafluoroborate,,,CCCC[n+]1ccn(C)c1.F[B-](F)(F)F,1-butyl-3-methylimidazolium tetrafluoroborate,AArYBF,CCO,ethanol,AAIsrh,CCCC[n+]1ccn(C)c1,F[B-](F)(F)F,2,,,,1235,False,CCCC[n+]1ccn(C)c1.F[B-](F)(F)F,No changes
HITfU,303.15,101.0,935.12,Iglesias-Otero et al. (2008b),Liquid,0.1479,1-butyl-3-methylimidazolium tetrafluoroborate,,,CCCC[n+]1ccn(C)c1.F[B-](F)(F)F,1-butyl-3-methylimidazolium tetrafluoroborate,AArYBF,CCO,ethanol,AAIsrh,CCCC[n+]1ccn(C)c1,F[B-](F)(F)F,2,,,,1236,False,CCCC[n+]1ccn(C)c1.F[B-](F)(F)F,No changes
HITfU,303.15,101.0,972.15,Iglesias-Otero et al. (2008b),Liquid,0.1995,1-butyl-3-methylimidazolium tetrafluoroborate,,,CCCC[n+]1ccn(C)c1.F[B-](F)(F)F,1-butyl-3-methylimidazolium tetrafluoroborate,AArYBF,CCO,ethanol,AAIsrh,CCCC[n+]1ccn(C)c1,F[B-](F)(F)F,2,,,,1237,False,CCCC[n+]1ccn(C)c1.F[B-](F)(F)F,No changes
HITfU,303.15,101.0,1003.46,Iglesias-Otero et al. (2008b),Liquid,0.2518,1-butyl-3-methylimidazolium tetrafluoroborate,,,CCCC[n+]1ccn(C)c1.F[B-](F)(F)F,1-butyl-3-methylimidazolium tetrafluoroborate,AArYBF,CCO,ethanol,AAIsrh,CCCC[n+]1ccn(C)c1,F[B-](F)(F)F,2,,,,1238,False,CCCC[n+]1ccn(C)c1.F[B-](F)(F)F,No changes
HITfU,303.15,101.0,1039.01,Iglesias-Otero et al. (2008b),Liquid,0.3228,1-butyl-3-methylimidazolium tetrafluoroborate,,,CCCC[n+]1ccn(C)c1.F[B-](F)(F)F,1-butyl-3-methylimidazolium tetrafluoroborate,AArYBF,CCO,ethanol,AAIsrh,CCCC[n+]1ccn(C)c1,F[B-](F)(F)F,2,,,,1239,False,CCCC[n+]1ccn(C)c1.F[B-](F)(F)F,No changes
HITfU,303.15,101.0,1078.14,Iglesias-Otero et al. (2008b),Liquid,0.4219,1-butyl-3-methylimidazolium tetrafluoroborate,,,CCCC[n+]1ccn(C)c1.F[B-](F)(F)F,1-butyl-3-methylimidazolium tetrafluoroborate,AArYBF,CCO,ethanol,AAIsrh,CCCC[n+]1ccn(C)c1,F[B-](F)(F)F,2,,,,1240,False,CCCC[n+]1ccn(C)c1.F[B-](F)(F)F,No changes
HITfU,303.15,101.0,1113.35,Iglesias-Otero et al. (2008b),Liquid,0.5356,1-butyl-3-methylimidazolium tetrafluoroborate,,,CCCC[n+]1ccn(C)c1.F[B-](F)(F)F,1-butyl-3-methylimidazolium tetrafluoroborate,AArYBF,CCO,ethanol,AAIsrh,CCCC[n+]1ccn(C)c1,F[B-](F)(F)F,2,,,,1241,False,CCCC[n+]1ccn(C)c1.F[B-](F)(F)F,No changes
HITfU,303.15,101.0,1135.23,Iglesias-Otero et al. (2008b),Liquid,0.6244,1-butyl-3-methylimidazolium tetrafluoroborate,,,CCCC[n+]1ccn(C)c1.F[B-](F)(F)F,1-butyl-3-methylimidazolium tetrafluoroborate,AArYBF,CCO,ethanol,AAIsrh,CCCC[n+]1ccn(C)c1,F[B-](F)(F)F,2,,,,1242,False,CCCC[n+]1ccn(C)c1.F[B-](F)(F)F,No changes
HITfU,303.15,101.0,1152.89,Iglesias-Otero et al. (2008b),Liquid,0.709,1-butyl-3-methylimidazolium tetrafluoroborate,,,CCCC[n+]1ccn(C)c1.F[B-](F)(F)F,1-butyl-3-methylimidazolium tetrafluoroborate,AArYBF,CCO,ethanol,AAIsrh,CCCC[n+]1ccn(C)c1,F[B-](F)(F)F,2,,,,1243,False,CCCC[n+]1ccn(C)c1.F[B-](F)(F)F,No changes
HITfU,303.15,101.0,1174.12,Iglesias-Otero et al. (2008b),Liquid,0.8295,1-butyl-3-methylimidazolium tetrafluoroborate,,,CCCC[n+]1ccn(C)c1.F[B-](F)(F)F,1-butyl-3-methylimidazolium tetrafluoroborate,AArYBF,CCO,ethanol,AAIsrh,CCCC[n+]1ccn(C)c1,F[B-](F)(F)F,2,,,,1244,False,CCCC[n+]1ccn(C)c1.F[B-](F)(F)F,No changes
HITfU,303.15,101.0,1189.16,Iglesias-Otero et al. (2008b),Liquid,0.9327,1-butyl-3-methylimidazolium tetrafluoroborate,,,CCCC[n+]1ccn(C)c1.F[B-](F)(F)F,1-butyl-3-methylimidazolium tetrafluoroborate,AArYBF,CCO,ethanol,AAIsrh,CCCC[n+]1ccn(C)c1,F[B-](F)(F)F,2,,,,1245,False,CCCC[n+]1ccn(C)c1.F[B-](F)(F)F,No changes
HITfU,303.15,101.0,1197.83,Iglesias-Otero et al. (2008b),Liquid,1.0,1-butyl-3-methylimidazolium tetrafluoroborate,,,CCCC[n+]1ccn(C)c1.F[B-](F)(F)F,1-butyl-3-methylimidazolium tetrafluoroborate,AArYBF,CCO,ethanol,AAIsrh,CCCC[n+]1ccn(C)c1,F[B-](F)(F)F,2,,,,1246,False,CCCC[n+]1ccn(C)c1.F[B-](F)(F)F,No changes
HITfU,313.15,101.0,772.04,Iglesias-Otero et al. (2008b),Liquid,0.0,1-butyl-3-methylimidazolium tetrafluoroborate,,,CCCC[n+]1ccn(C)c1.F[B-](F)(F)F,1-butyl-3-methylimidazolium tetrafluoroborate,AArYBF,CCO,ethanol,AAIsrh,CCCC[n+]1ccn(C)c1,F[B-](F)(F)F,2,,,,1247,False,CCCC[n+]1ccn(C)c1.F[B-](F)(F)F,No changes
HITfU,313.15,101.0,837.83,Iglesias-Otero et al. (2008b),Liquid,0.0517,1-butyl-3-methylimidazolium tetrafluoroborate,,,CCCC[n+]1ccn(C)c1.F[B-](F)(F)F,1-butyl-3-methylimidazolium tetrafluoroborate,AArYBF,CCO,ethanol,AAIsrh,CCCC[n+]1ccn(C)c1,F[B-](F)(F)F,2,,,,1248,False,CCCC[n+]1ccn(C)c1.F[B-](F)(F)F,No changes
HITfU,313.15,101.0,879.27,Iglesias-Otero et al. (2008b),Liquid,0.0918,1-butyl-3-methylimidazolium tetrafluoroborate,,,CCCC[n+]1ccn(C)c1.F[B-](F)(F)F,1-butyl-3-methylimidazolium tetrafluoroborate,AArYBF,CCO,ethanol,AAIsrh,CCCC[n+]1ccn(C)c1,F[B-](F)(F)F,2,,,,1249,False,CCCC[n+]1ccn(C)c1.F[B-](F)(F)F,No changes
HITfU,313.15,101.0,927.02,Iglesias-Otero et al. (2008b),Liquid,0.1479,1-butyl-3-methylimidazolium tetrafluoroborate,,,CCCC[n+]1ccn(C)c1.F[B-](F)(F)F,1-butyl-3-methylimidazolium tetrafluoroborate,AArYBF,CCO,ethanol,AAIsrh,CCCC[n+]1ccn(C)c1,F[B-](F)(F)F,2,,,,1250,False,CCCC[n+]1ccn(C)c1.F[B-](F)(F)F,No changes
HITfU,313.15,101.0,964.15,Iglesias-Otero et al. (2008b),Liquid,0.1995,1-butyl-3-methylimidazolium tetrafluoroborate,,,CCCC[n+]1ccn(C)c1.F[B-](F)(F)F,1-butyl-3-methylimidazolium tetrafluoroborate,AArYBF,CCO,ethanol,AAIsrh,CCCC[n+]1ccn(C)c1,F[B-](F)(F)F,2,,,,1251,False,CCCC[n+]1ccn(C)c1.F[B-](F)(F)F,No changes
HITfU,313.15,101.0,995.56,Iglesias-Otero et al. (2008b),Liquid,0.2518,1-butyl-3-methylimidazolium tetrafluoroborate,,,CCCC[n+]1ccn(C)c1.F[B-](F)(F)F,1-butyl-3-methylimidazolium tetrafluoroborate,AArYBF,CCO,ethanol,AAIsrh,CCCC[n+]1ccn(C)c1,F[B-](F)(F)F,2,,,,1252,False,CCCC[n+]1ccn(C)c1.F[B-](F)(F)F,No changes
HITfU,313.15,101.0,1031.22,Iglesias-Otero et al. (2008b),Liquid,0.3228,1-butyl-3-methylimidazolium tetrafluoroborate,,,CCCC[n+]1ccn(C)c1.F[B-](F)(F)F,1-butyl-3-methylimidazolium tetrafluoroborate,AArYBF,CCO,ethanol,AAIsrh,CCCC[n+]1ccn(C)c1,F[B-](F)(F)F,2,,,,1253,False,CCCC[n+]1ccn(C)c1.F[B-](F)(F)F,No changes
HITfU,313.15,101.0,1070.51,Iglesias-Otero et al. (2008b),Liquid,0.4219,1-butyl-3-methylimidazolium tetrafluoroborate,,,CCCC[n+]1ccn(C)c1.F[B-](F)(F)F,1-butyl-3-methylimidazolium tetrafluoroborate,AArYBF,CCO,ethanol,AAIsrh,CCCC[n+]1ccn(C)c1,F[B-](F)(F)F,2,,,,1254,False,CCCC[n+]1ccn(C)c1.F[B-](F)(F)F,No changes
HITfU,313.15,101.0,1105.88,Iglesias-Otero et al. (2008b),Liquid,0.5356,1-butyl-3-methylimidazolium tetrafluoroborate,,,CCCC[n+]1ccn(C)c1.F[B-](F)(F)F,1-butyl-3-methylimidazolium tetrafluoroborate,AArYBF,CCO,ethanol,AAIsrh,CCCC[n+]1ccn(C)c1,F[B-](F)(F)F,2,,,,1255,False,CCCC[n+]1ccn(C)c1.F[B-](F)(F)F,No changes
HITfU,313.15,101.0,1127.86,Iglesias-Otero et al. (2008b),Liquid,0.6244,1-butyl-3-methylimidazolium tetrafluoroborate,,,CCCC[n+]1ccn(C)c1.F[B-](F)(F)F,1-butyl-3-methylimidazolium tetrafluoroborate,AArYBF,CCO,ethanol,AAIsrh,CCCC[n+]1ccn(C)c1,F[B-](F)(F)F,2,,,,1256,False,CCCC[n+]1ccn(C)c1.F[B-](F)(F)F,No changes
HITfU,313.15,101.0,1145.59,Iglesias-Otero et al. (2008b),Liquid,0.709,1-butyl-3-methylimidazolium tetrafluoroborate,,,CCCC[n+]1ccn(C)c1.F[B-](F)(F)F,1-butyl-3-methylimidazolium tetrafluoroborate,AArYBF,CCO,ethanol,AAIsrh,CCCC[n+]1ccn(C)c1,F[B-](F)(F)F,2,,,,1257,False,CCCC[n+]1ccn(C)c1.F[B-](F)(F)F,No changes
HITfU,313.15,101.0,1166.93,Iglesias-Otero et al. (2008b),Liquid,0.8295,1-butyl-3-methylimidazolium tetrafluoroborate,,,CCCC[n+]1ccn(C)c1.F[B-](F)(F)F,1-butyl-3-methylimidazolium tetrafluoroborate,AArYBF,CCO,ethanol,AAIsrh,CCCC[n+]1ccn(C)c1,F[B-](F)(F)F,2,,,,1258,False,CCCC[n+]1ccn(C)c1.F[B-](F)(F)F,No changes
HITfU,313.15,101.0,1182.04,Iglesias-Otero et al. (2008b),Liquid,0.9327,1-butyl-3-methylimidazolium tetrafluoroborate,,,CCCC[n+]1ccn(C)c1.F[B-](F)(F)F,1-butyl-3-methylimidazolium tetrafluoroborate,AArYBF,CCO,ethanol,AAIsrh,CCCC[n+]1ccn(C)c1,F[B-](F)(F)F,2,,,,1259,False,CCCC[n+]1ccn(C)c1.F[B-](F)(F)F,No changes
HITfU,313.15,101.0,1190.74,Iglesias-Otero et al. (2008b),Liquid,1.0,1-butyl-3-methylimidazolium tetrafluoroborate,,,CCCC[n+]1ccn(C)c1.F[B-](F)(F)F,1-butyl-3-methylimidazolium tetrafluoroborate,AArYBF,CCO,ethanol,AAIsrh,CCCC[n+]1ccn(C)c1,F[B-](F)(F)F,2,,,,1260,False,CCCC[n+]1ccn(C)c1.F[B-](F)(F)F,No changes
HITfU,323.15,101.0,763.1,Iglesias-Otero et al. (2008b),Liquid,0.0,1-butyl-3-methylimidazolium tetrafluoroborate,,,CCCC[n+]1ccn(C)c1.F[B-](F)(F)F,1-butyl-3-methylimidazolium tetrafluoroborate,AArYBF,CCO,ethanol,AAIsrh,CCCC[n+]1ccn(C)c1,F[B-](F)(F)F,2,,,,1261,False,CCCC[n+]1ccn(C)c1.F[B-](F)(F)F,No changes
HITfU,323.15,101.0,829.27,Iglesias-Otero et al. (2008b),Liquid,0.0517,1-butyl-3-methylimidazolium tetrafluoroborate,,,CCCC[n+]1ccn(C)c1.F[B-](F)(F)F,1-butyl-3-methylimidazolium tetrafluoroborate,AArYBF,CCO,ethanol,AAIsrh,CCCC[n+]1ccn(C)c1,F[B-](F)(F)F,2,,,,1262,False,CCCC[n+]1ccn(C)c1.F[B-](F)(F)F,No changes
HITfU,323.15,101.0,870.9,Iglesias-Otero et al. (2008b),Liquid,0.0918,1-butyl-3-methylimidazolium tetrafluoroborate,,,CCCC[n+]1ccn(C)c1.F[B-](F)(F)F,1-butyl-3-methylimidazolium tetrafluoroborate,AArYBF,CCO,ethanol,AAIsrh,CCCC[n+]1ccn(C)c1,F[B-](F)(F)F,2,,,,1263,False,CCCC[n+]1ccn(C)c1.F[B-](F)(F)F,No changes
HITfU,323.15,101.0,918.84,Iglesias-Otero et al. (2008b),Liquid,0.1479,1-butyl-3-methylimidazolium tetrafluoroborate,,,CCCC[n+]1ccn(C)c1.F[B-](F)(F)F,1-butyl-3-methylimidazolium tetrafluoroborate,AArYBF,CCO,ethanol,AAIsrh,CCCC[n+]1ccn(C)c1,F[B-](F)(F)F,2,,,,1264,False,CCCC[n+]1ccn(C)c1.F[B-](F)(F)F,No changes
HITfU,323.15,101.0,956.11,Iglesias-Otero et al. (2008b),Liquid,0.1995,1-butyl-3-methylimidazolium tetrafluoroborate,,,CCCC[n+]1ccn(C)c1.F[B-](F)(F)F,1-butyl-3-methylimidazolium tetrafluoroborate,AArYBF,CCO,ethanol,AAIsrh,CCCC[n+]1ccn(C)c1,F[B-](F)(F)F,2,,,,1265,False,CCCC[n+]1ccn(C)c1.F[B-](F)(F)F,No changes
HITfU,323.15,101.0,987.64,Iglesias-Otero et al. (2008b),Liquid,0.2518,1-butyl-3-methylimidazolium tetrafluoroborate,,,CCCC[n+]1ccn(C)c1.F[B-](F)(F)F,1-butyl-3-methylimidazolium tetrafluoroborate,AArYBF,CCO,ethanol,AAIsrh,CCCC[n+]1ccn(C)c1,F[B-](F)(F)F,2,,,,1266,False,CCCC[n+]1ccn(C)c1.F[B-](F)(F)F,No changes
HITfU,323.15,101.0,1023.46,Iglesias-Otero et al. (2008b),Liquid,0.3228,1-butyl-3-methylimidazolium tetrafluoroborate,,,CCCC[n+]1ccn(C)c1.F[B-](F)(F)F,1-butyl-3-methylimidazolium tetrafluoroborate,AArYBF,CCO,ethanol,AAIsrh,CCCC[n+]1ccn(C)c1,F[B-](F)(F)F,2,,,,1267,False,CCCC[n+]1ccn(C)c1.F[B-](F)(F)F,No changes
HITfU,323.15,101.0,1062.91,Iglesias-Otero et al. (2008b),Liquid,0.4219,1-butyl-3-methylimidazolium tetrafluoroborate,,,CCCC[n+]1ccn(C)c1.F[B-](F)(F)F,1-butyl-3-methylimidazolium tetrafluoroborate,AArYBF,CCO,ethanol,AAIsrh,CCCC[n+]1ccn(C)c1,F[B-](F)(F)F,2,,,,1268,False,CCCC[n+]1ccn(C)c1.F[B-](F)(F)F,No changes
HITfU,323.15,101.0,1098.46,Iglesias-Otero et al. (2008b),Liquid,0.5356,1-butyl-3-methylimidazolium tetrafluoroborate,,,CCCC[n+]1ccn(C)c1.F[B-](F)(F)F,1-butyl-3-methylimidazolium tetrafluoroborate,AArYBF,CCO,ethanol,AAIsrh,CCCC[n+]1ccn(C)c1,F[B-](F)(F)F,2,,,,1269,False,CCCC[n+]1ccn(C)c1.F[B-](F)(F)F,No changes
HITfU,323.15,101.0,1120.54,Iglesias-Otero et al. (2008b),Liquid,0.6244,1-butyl-3-methylimidazolium tetrafluoroborate,,,CCCC[n+]1ccn(C)c1.F[B-](F)(F)F,1-butyl-3-methylimidazolium tetrafluoroborate,AArYBF,CCO,ethanol,AAIsrh,CCCC[n+]1ccn(C)c1,F[B-](F)(F)F,2,,,,1270,False,CCCC[n+]1ccn(C)c1.F[B-](F)(F)F,No changes
HITfU,323.15,101.0,1138.37,Iglesias-Otero et al. (2008b),Liquid,0.709,1-butyl-3-methylimidazolium tetrafluoroborate,,,CCCC[n+]1ccn(C)c1.F[B-](F)(F)F,1-butyl-3-methylimidazolium tetrafluoroborate,AArYBF,CCO,ethanol,AAIsrh,CCCC[n+]1ccn(C)c1,F[B-](F)(F)F,2,,,,1271,False,CCCC[n+]1ccn(C)c1.F[B-](F)(F)F,No changes
HITfU,323.15,101.0,1159.8,Iglesias-Otero et al. (2008b),Liquid,0.8295,1-butyl-3-methylimidazolium tetrafluoroborate,,,CCCC[n+]1ccn(C)c1.F[B-](F)(F)F,1-butyl-3-methylimidazolium tetrafluoroborate,AArYBF,CCO,ethanol,AAIsrh,CCCC[n+]1ccn(C)c1,F[B-](F)(F)F,2,,,,1272,False,CCCC[n+]1ccn(C)c1.F[B-](F)(F)F,No changes
HITfU,323.15,101.0,1174.97,Iglesias-Otero et al. (2008b),Liquid,0.9327,1-butyl-3-methylimidazolium tetrafluoroborate,,,CCCC[n+]1ccn(C)c1.F[B-](F)(F)F,1-butyl-3-methylimidazolium tetrafluoroborate,AArYBF,CCO,ethanol,AAIsrh,CCCC[n+]1ccn(C)c1,F[B-](F)(F)F,2,,,,1273,False,CCCC[n+]1ccn(C)c1.F[B-](F)(F)F,No changes
HITfU,323.15,101.0,1183.72,Iglesias-Otero et al. (2008b),Liquid,1.0,1-butyl-3-methylimidazolium tetrafluoroborate,,,CCCC[n+]1ccn(C)c1.F[B-](F)(F)F,1-butyl-3-methylimidazolium tetrafluoroborate,AArYBF,CCO,ethanol,AAIsrh,CCCC[n+]1ccn(C)c1,F[B-](F)(F)F,2,,,,1274,False,CCCC[n+]1ccn(C)c1.F[B-](F)(F)F,No changes
qhEbI,293.15,101.0,852.0,Garcia-Mardones et al. (2012b),Liquid,0.0481,1-butyl-4-methylpyridinium tetrafluoroborate,,,CCCC[n+]1ccc(C)cc1.F[B-](F)(F)F,1-butyl-4-methylpyridinium tetrafluoroborate,AAtevY,CCO,ethanol,AAIsrh,CCCC[n+]1ccc(C)cc1,F[B-](F)(F)F,2,,,,1275,False,CCCC[n+]1ccc(C)cc1.F[B-](F)(F)F,No changes
qhEbI,293.15,101.0,900.2,Garcia-Mardones et al. (2012b),Liquid,0.0952,1-butyl-4-methylpyridinium tetrafluoroborate,,,CCCC[n+]1ccc(C)cc1.F[B-](F)(F)F,1-butyl-4-methylpyridinium tetrafluoroborate,AAtevY,CCO,ethanol,AAIsrh,CCCC[n+]1ccc(C)cc1,F[B-](F)(F)F,2,,,,1276,False,CCCC[n+]1ccc(C)cc1.F[B-](F)(F)F,No changes
qhEbI,293.15,101.0,972.12,Garcia-Mardones et al. (2012b),Liquid,0.1896,1-butyl-4-methylpyridinium tetrafluoroborate,,,CCCC[n+]1ccc(C)cc1.F[B-](F)(F)F,1-butyl-4-methylpyridinium tetrafluoroborate,AAtevY,CCO,ethanol,AAIsrh,CCCC[n+]1ccc(C)cc1,F[B-](F)(F)F,2,,,,1277,False,CCCC[n+]1ccc(C)cc1.F[B-](F)(F)F,No changes
qhEbI,293.15,101.0,1024.13,Garcia-Mardones et al. (2012b),Liquid,0.2856,1-butyl-4-methylpyridinium tetrafluoroborate,,,CCCC[n+]1ccc(C)cc1.F[B-](F)(F)F,1-butyl-4-methylpyridinium tetrafluoroborate,AAtevY,CCO,ethanol,AAIsrh,CCCC[n+]1ccc(C)cc1,F[B-](F)(F)F,2,,,,1278,False,CCCC[n+]1ccc(C)cc1.F[B-](F)(F)F,No changes
qhEbI,293.15,101.0,1063.87,Garcia-Mardones et al. (2012b),Liquid,0.3839,1-butyl-4-methylpyridinium tetrafluoroborate,,,CCCC[n+]1ccc(C)cc1.F[B-](F)(F)F,1-butyl-4-methylpyridinium tetrafluoroborate,AAtevY,CCO,ethanol,AAIsrh,CCCC[n+]1ccc(C)cc1,F[B-](F)(F)F,2,,,,1279,False,CCCC[n+]1ccc(C)cc1.F[B-](F)(F)F,No changes
qhEbI,293.15,101.0,1107.23,Garcia-Mardones et al. (2012b),Liquid,0.5297,1-butyl-4-methylpyridinium tetrafluoroborate,,,CCCC[n+]1ccc(C)cc1.F[B-](F)(F)F,1-butyl-4-methylpyridinium tetrafluoroborate,AAtevY,CCO,ethanol,AAIsrh,CCCC[n+]1ccc(C)cc1,F[B-](F)(F)F,2,,,,1280,False,CCCC[n+]1ccc(C)cc1.F[B-](F)(F)F,No changes
qhEbI,293.15,101.0,1120.51,Garcia-Mardones et al. (2012b),Liquid,0.5858,1-butyl-4-methylpyridinium tetrafluoroborate,,,CCCC[n+]1ccc(C)cc1.F[B-](F)(F)F,1-butyl-4-methylpyridinium tetrafluoroborate,AAtevY,CCO,ethanol,AAIsrh,CCCC[n+]1ccc(C)cc1,F[B-](F)(F)F,2,,,,1281,False,CCCC[n+]1ccc(C)cc1.F[B-](F)(F)F,No changes
qhEbI,293.15,101.0,1140.91,Garcia-Mardones et al. (2012b),Liquid,0.6862,1-butyl-4-methylpyridinium tetrafluoroborate,,,CCCC[n+]1ccc(C)cc1.F[B-](F)(F)F,1-butyl-4-methylpyridinium tetrafluoroborate,AAtevY,CCO,ethanol,AAIsrh,CCCC[n+]1ccc(C)cc1,F[B-](F)(F)F,2,,,,1282,False,CCCC[n+]1ccc(C)cc1.F[B-](F)(F)F,No changes
qhEbI,293.15,101.0,1158.26,Garcia-Mardones et al. (2012b),Liquid,0.7889,1-butyl-4-methylpyridinium tetrafluoroborate,,,CCCC[n+]1ccc(C)cc1.F[B-](F)(F)F,1-butyl-4-methylpyridinium tetrafluoroborate,AAtevY,CCO,ethanol,AAIsrh,CCCC[n+]1ccc(C)cc1,F[B-](F)(F)F,2,,,,1283,False,CCCC[n+]1ccc(C)cc1.F[B-](F)(F)F,No changes
qhEbI,293.15,101.0,1166.08,Garcia-Mardones et al. (2012b),Liquid,0.8418,1-butyl-4-methylpyridinium tetrafluoroborate,,,CCCC[n+]1ccc(C)cc1.F[B-](F)(F)F,1-butyl-4-methylpyridinium tetrafluoroborate,AAtevY,CCO,ethanol,AAIsrh,CCCC[n+]1ccc(C)cc1,F[B-](F)(F)F,2,,,,1284,False,CCCC[n+]1ccc(C)cc1.F[B-](F)(F)F,No changes