setid,Temperature (K),Pressure (kPa),Density (kg/m3),reference,phases,Mole fraction,Mole fraction of compound name,Weight fraction,Weight fraction of compound name,IL_SMILES,IL_name,IL_ID,Solvent_SMILES,Solvent_name,Solvent_ID,IL_cation_SMILES,IL_anion_SMILES,IL_component_number,Mole fraction of solvent,IL_MW,Solvent_MW,Record_ID,Contains_Metal,Standardized_IL_SMILES,Changes
AZGuM,298.15,101.0,1072.4,Xu et al. (2013a),Liquid,0.8003,n-butylammonium nitrate,,,CCCC[NH3+].O=[N+]([O-])[O-],n-butylammonium nitrate,AAaJgU,CCO,ethanol,AAIsrh,CCCC[NH3+],O=[N+]([O-])[O-],2,,,,3102,False,CCCC[NH3+].O=[N+]([O-])[O-],No changes
AZGuM,298.15,101.0,1087.8,Xu et al. (2013a),Liquid,0.8989,n-butylammonium nitrate,,,CCCC[NH3+].O=[N+]([O-])[O-],n-butylammonium nitrate,AAaJgU,CCO,ethanol,AAIsrh,CCCC[NH3+],O=[N+]([O-])[O-],2,,,,3103,False,CCCC[NH3+].O=[N+]([O-])[O-],No changes
AZGuM,298.15,101.0,1101.5,Xu et al. (2013a),Liquid,1.0,n-butylammonium nitrate,,,CCCC[NH3+].O=[N+]([O-])[O-],n-butylammonium nitrate,AAaJgU,CCO,ethanol,AAIsrh,CCCC[NH3+],O=[N+]([O-])[O-],2,,,,3104,False,CCCC[NH3+].O=[N+]([O-])[O-],No changes
AZGuM,303.15,101.0,780.69,Xu et al. (2013a),Liquid,0.0,n-butylammonium nitrate,,,CCCC[NH3+].O=[N+]([O-])[O-],n-butylammonium nitrate,AAaJgU,CCO,ethanol,AAIsrh,CCCC[NH3+],O=[N+]([O-])[O-],2,,,,3105,False,CCCC[NH3+].O=[N+]([O-])[O-],No changes
AZGuM,303.15,101.0,850.59,Xu et al. (2013a),Liquid,0.0995,n-butylammonium nitrate,,,CCCC[NH3+].O=[N+]([O-])[O-],n-butylammonium nitrate,AAaJgU,CCO,ethanol,AAIsrh,CCCC[NH3+],O=[N+]([O-])[O-],2,,,,3106,False,CCCC[NH3+].O=[N+]([O-])[O-],No changes
AZGuM,303.15,101.0,902.64,Xu et al. (2013a),Liquid,0.1997,n-butylammonium nitrate,,,CCCC[NH3+].O=[N+]([O-])[O-],n-butylammonium nitrate,AAaJgU,CCO,ethanol,AAIsrh,CCCC[NH3+],O=[N+]([O-])[O-],2,,,,3107,False,CCCC[NH3+].O=[N+]([O-])[O-],No changes
AZGuM,303.15,101.0,944.41,Xu et al. (2013a),Liquid,0.2999,n-butylammonium nitrate,,,CCCC[NH3+].O=[N+]([O-])[O-],n-butylammonium nitrate,AAaJgU,CCO,ethanol,AAIsrh,CCCC[NH3+],O=[N+]([O-])[O-],2,,,,3108,False,CCCC[NH3+].O=[N+]([O-])[O-],No changes
AZGuM,303.15,101.0,978.16,Xu et al. (2013a),Liquid,0.3998,n-butylammonium nitrate,,,CCCC[NH3+].O=[N+]([O-])[O-],n-butylammonium nitrate,AAaJgU,CCO,ethanol,AAIsrh,CCCC[NH3+],O=[N+]([O-])[O-],2,,,,3109,False,CCCC[NH3+].O=[N+]([O-])[O-],No changes
AZGuM,303.15,101.0,1006.2,Xu et al. (2013a),Liquid,0.5005,n-butylammonium nitrate,,,CCCC[NH3+].O=[N+]([O-])[O-],n-butylammonium nitrate,AAaJgU,CCO,ethanol,AAIsrh,CCCC[NH3+],O=[N+]([O-])[O-],2,,,,3110,False,CCCC[NH3+].O=[N+]([O-])[O-],No changes
AZGuM,303.15,101.0,1041.1,Xu et al. (2013a),Liquid,0.6501,n-butylammonium nitrate,,,CCCC[NH3+].O=[N+]([O-])[O-],n-butylammonium nitrate,AAaJgU,CCO,ethanol,AAIsrh,CCCC[NH3+],O=[N+]([O-])[O-],2,,,,3111,False,CCCC[NH3+].O=[N+]([O-])[O-],No changes
AZGuM,303.15,101.0,1069.2,Xu et al. (2013a),Liquid,0.8003,n-butylammonium nitrate,,,CCCC[NH3+].O=[N+]([O-])[O-],n-butylammonium nitrate,AAaJgU,CCO,ethanol,AAIsrh,CCCC[NH3+],O=[N+]([O-])[O-],2,,,,3112,False,CCCC[NH3+].O=[N+]([O-])[O-],No changes
AZGuM,303.15,101.0,1084.6,Xu et al. (2013a),Liquid,0.8989,n-butylammonium nitrate,,,CCCC[NH3+].O=[N+]([O-])[O-],n-butylammonium nitrate,AAaJgU,CCO,ethanol,AAIsrh,CCCC[NH3+],O=[N+]([O-])[O-],2,,,,3113,False,CCCC[NH3+].O=[N+]([O-])[O-],No changes
AZGuM,303.15,101.0,1098.4,Xu et al. (2013a),Liquid,1.0,n-butylammonium nitrate,,,CCCC[NH3+].O=[N+]([O-])[O-],n-butylammonium nitrate,AAaJgU,CCO,ethanol,AAIsrh,CCCC[NH3+],O=[N+]([O-])[O-],2,,,,3114,False,CCCC[NH3+].O=[N+]([O-])[O-],No changes
AZGuM,308.15,101.0,776.35,Xu et al. (2013a),Liquid,0.0,n-butylammonium nitrate,,,CCCC[NH3+].O=[N+]([O-])[O-],n-butylammonium nitrate,AAaJgU,CCO,ethanol,AAIsrh,CCCC[NH3+],O=[N+]([O-])[O-],2,,,,3115,False,CCCC[NH3+].O=[N+]([O-])[O-],No changes
AZGuM,308.15,101.0,846.63,Xu et al. (2013a),Liquid,0.0995,n-butylammonium nitrate,,,CCCC[NH3+].O=[N+]([O-])[O-],n-butylammonium nitrate,AAaJgU,CCO,ethanol,AAIsrh,CCCC[NH3+],O=[N+]([O-])[O-],2,,,,3116,False,CCCC[NH3+].O=[N+]([O-])[O-],No changes
AZGuM,308.15,101.0,898.9,Xu et al. (2013a),Liquid,0.1997,n-butylammonium nitrate,,,CCCC[NH3+].O=[N+]([O-])[O-],n-butylammonium nitrate,AAaJgU,CCO,ethanol,AAIsrh,CCCC[NH3+],O=[N+]([O-])[O-],2,,,,3117,False,CCCC[NH3+].O=[N+]([O-])[O-],No changes
AZGuM,308.15,101.0,940.85,Xu et al. (2013a),Liquid,0.2999,n-butylammonium nitrate,,,CCCC[NH3+].O=[N+]([O-])[O-],n-butylammonium nitrate,AAaJgU,CCO,ethanol,AAIsrh,CCCC[NH3+],O=[N+]([O-])[O-],2,,,,3118,False,CCCC[NH3+].O=[N+]([O-])[O-],No changes
AZGuM,308.15,101.0,974.71,Xu et al. (2013a),Liquid,0.3998,n-butylammonium nitrate,,,CCCC[NH3+].O=[N+]([O-])[O-],n-butylammonium nitrate,AAaJgU,CCO,ethanol,AAIsrh,CCCC[NH3+],O=[N+]([O-])[O-],2,,,,3119,False,CCCC[NH3+].O=[N+]([O-])[O-],No changes
AZGuM,308.15,101.0,1003.2,Xu et al. (2013a),Liquid,0.5005,n-butylammonium nitrate,,,CCCC[NH3+].O=[N+]([O-])[O-],n-butylammonium nitrate,AAaJgU,CCO,ethanol,AAIsrh,CCCC[NH3+],O=[N+]([O-])[O-],2,,,,3120,False,CCCC[NH3+].O=[N+]([O-])[O-],No changes
AZGuM,308.15,101.0,1037.9,Xu et al. (2013a),Liquid,0.6501,n-butylammonium nitrate,,,CCCC[NH3+].O=[N+]([O-])[O-],n-butylammonium nitrate,AAaJgU,CCO,ethanol,AAIsrh,CCCC[NH3+],O=[N+]([O-])[O-],2,,,,3121,False,CCCC[NH3+].O=[N+]([O-])[O-],No changes
AZGuM,308.15,101.0,1066.0,Xu et al. (2013a),Liquid,0.8003,n-butylammonium nitrate,,,CCCC[NH3+].O=[N+]([O-])[O-],n-butylammonium nitrate,AAaJgU,CCO,ethanol,AAIsrh,CCCC[NH3+],O=[N+]([O-])[O-],2,,,,3122,False,CCCC[NH3+].O=[N+]([O-])[O-],No changes
AZGuM,308.15,101.0,1081.5,Xu et al. (2013a),Liquid,0.8989,n-butylammonium nitrate,,,CCCC[NH3+].O=[N+]([O-])[O-],n-butylammonium nitrate,AAaJgU,CCO,ethanol,AAIsrh,CCCC[NH3+],O=[N+]([O-])[O-],2,,,,3123,False,CCCC[NH3+].O=[N+]([O-])[O-],No changes
AZGuM,308.15,101.0,1095.3,Xu et al. (2013a),Liquid,1.0,n-butylammonium nitrate,,,CCCC[NH3+].O=[N+]([O-])[O-],n-butylammonium nitrate,AAaJgU,CCO,ethanol,AAIsrh,CCCC[NH3+],O=[N+]([O-])[O-],2,,,,3124,False,CCCC[NH3+].O=[N+]([O-])[O-],No changes
AZGuM,313.15,101.0,772.11,Xu et al. (2013a),Liquid,0.0,n-butylammonium nitrate,,,CCCC[NH3+].O=[N+]([O-])[O-],n-butylammonium nitrate,AAaJgU,CCO,ethanol,AAIsrh,CCCC[NH3+],O=[N+]([O-])[O-],2,,,,3125,False,CCCC[NH3+].O=[N+]([O-])[O-],No changes
AZGuM,313.15,101.0,842.66,Xu et al. (2013a),Liquid,0.0995,n-butylammonium nitrate,,,CCCC[NH3+].O=[N+]([O-])[O-],n-butylammonium nitrate,AAaJgU,CCO,ethanol,AAIsrh,CCCC[NH3+],O=[N+]([O-])[O-],2,,,,3126,False,CCCC[NH3+].O=[N+]([O-])[O-],No changes
AZGuM,313.15,101.0,895.16,Xu et al. (2013a),Liquid,0.1997,n-butylammonium nitrate,,,CCCC[NH3+].O=[N+]([O-])[O-],n-butylammonium nitrate,AAaJgU,CCO,ethanol,AAIsrh,CCCC[NH3+],O=[N+]([O-])[O-],2,,,,3127,False,CCCC[NH3+].O=[N+]([O-])[O-],No changes
AZGuM,313.15,101.0,937.28,Xu et al. (2013a),Liquid,0.2999,n-butylammonium nitrate,,,CCCC[NH3+].O=[N+]([O-])[O-],n-butylammonium nitrate,AAaJgU,CCO,ethanol,AAIsrh,CCCC[NH3+],O=[N+]([O-])[O-],2,,,,3128,False,CCCC[NH3+].O=[N+]([O-])[O-],No changes
AZGuM,313.15,101.0,971.27,Xu et al. (2013a),Liquid,0.3998,n-butylammonium nitrate,,,CCCC[NH3+].O=[N+]([O-])[O-],n-butylammonium nitrate,AAaJgU,CCO,ethanol,AAIsrh,CCCC[NH3+],O=[N+]([O-])[O-],2,,,,3129,False,CCCC[NH3+].O=[N+]([O-])[O-],No changes
AZGuM,313.15,101.0,999.8,Xu et al. (2013a),Liquid,0.5005,n-butylammonium nitrate,,,CCCC[NH3+].O=[N+]([O-])[O-],n-butylammonium nitrate,AAaJgU,CCO,ethanol,AAIsrh,CCCC[NH3+],O=[N+]([O-])[O-],2,,,,3130,False,CCCC[NH3+].O=[N+]([O-])[O-],No changes
AZGuM,313.15,101.0,1034.6,Xu et al. (2013a),Liquid,0.6501,n-butylammonium nitrate,,,CCCC[NH3+].O=[N+]([O-])[O-],n-butylammonium nitrate,AAaJgU,CCO,ethanol,AAIsrh,CCCC[NH3+],O=[N+]([O-])[O-],2,,,,3131,False,CCCC[NH3+].O=[N+]([O-])[O-],No changes
AZGuM,313.15,101.0,1062.8,Xu et al. (2013a),Liquid,0.8003,n-butylammonium nitrate,,,CCCC[NH3+].O=[N+]([O-])[O-],n-butylammonium nitrate,AAaJgU,CCO,ethanol,AAIsrh,CCCC[NH3+],O=[N+]([O-])[O-],2,,,,3132,False,CCCC[NH3+].O=[N+]([O-])[O-],No changes
AZGuM,313.15,101.0,1078.3,Xu et al. (2013a),Liquid,0.8989,n-butylammonium nitrate,,,CCCC[NH3+].O=[N+]([O-])[O-],n-butylammonium nitrate,AAaJgU,CCO,ethanol,AAIsrh,CCCC[NH3+],O=[N+]([O-])[O-],2,,,,3133,False,CCCC[NH3+].O=[N+]([O-])[O-],No changes
AZGuM,313.15,101.0,1092.2,Xu et al. (2013a),Liquid,1.0,n-butylammonium nitrate,,,CCCC[NH3+].O=[N+]([O-])[O-],n-butylammonium nitrate,AAaJgU,CCO,ethanol,AAIsrh,CCCC[NH3+],O=[N+]([O-])[O-],2,,,,3134,False,CCCC[NH3+].O=[N+]([O-])[O-],No changes
IFgxt,293.15,101.0,789.53,Iglesias-Otero et al. (2008b),Liquid,0.0,1-butyl-3-methylimidazolium methyl sulfate,,,CCCC[n+]1ccn(C)c1.COS(=O)(=O)[O-],1-butyl-3-methylimidazolium methyl sulfate,AAwHNg,CCO,ethanol,AAIsrh,CCCC[n+]1ccn(C)c1,COS(=O)(=O)[O-],2,,,,3135,False,CCCC[n+]1ccn(C)c1.COS(=O)(=O)[O-],No changes
IFgxt,293.15,101.0,854.75,Iglesias-Otero et al. (2008b),Liquid,0.0459,1-butyl-3-methylimidazolium methyl sulfate,,,CCCC[n+]1ccn(C)c1.COS(=O)(=O)[O-],1-butyl-3-methylimidazolium methyl sulfate,AAwHNg,CCO,ethanol,AAIsrh,CCCC[n+]1ccn(C)c1,COS(=O)(=O)[O-],2,,,,3136,False,CCCC[n+]1ccn(C)c1.COS(=O)(=O)[O-],No changes
IFgxt,293.15,101.0,913.25,Iglesias-Otero et al. (2008b),Liquid,0.0987,1-butyl-3-methylimidazolium methyl sulfate,,,CCCC[n+]1ccn(C)c1.COS(=O)(=O)[O-],1-butyl-3-methylimidazolium methyl sulfate,AAwHNg,CCO,ethanol,AAIsrh,CCCC[n+]1ccn(C)c1,COS(=O)(=O)[O-],2,,,,3137,False,CCCC[n+]1ccn(C)c1.COS(=O)(=O)[O-],No changes
IFgxt,293.15,101.0,952.0,Iglesias-Otero et al. (2008b),Liquid,0.142,1-butyl-3-methylimidazolium methyl sulfate,,,CCCC[n+]1ccn(C)c1.COS(=O)(=O)[O-],1-butyl-3-methylimidazolium methyl sulfate,AAwHNg,CCO,ethanol,AAIsrh,CCCC[n+]1ccn(C)c1,COS(=O)(=O)[O-],2,,,,3138,False,CCCC[n+]1ccn(C)c1.COS(=O)(=O)[O-],No changes
IFgxt,293.15,101.0,988.2,Iglesias-Otero et al. (2008b),Liquid,0.1905,1-butyl-3-methylimidazolium methyl sulfate,,,CCCC[n+]1ccn(C)c1.COS(=O)(=O)[O-],1-butyl-3-methylimidazolium methyl sulfate,AAwHNg,CCO,ethanol,AAIsrh,CCCC[n+]1ccn(C)c1,COS(=O)(=O)[O-],2,,,,3139,False,CCCC[n+]1ccn(C)c1.COS(=O)(=O)[O-],No changes
IFgxt,293.15,101.0,1016.76,Iglesias-Otero et al. (2008b),Liquid,0.2357,1-butyl-3-methylimidazolium methyl sulfate,,,CCCC[n+]1ccn(C)c1.COS(=O)(=O)[O-],1-butyl-3-methylimidazolium methyl sulfate,AAwHNg,CCO,ethanol,AAIsrh,CCCC[n+]1ccn(C)c1,COS(=O)(=O)[O-],2,,,,3140,False,CCCC[n+]1ccn(C)c1.COS(=O)(=O)[O-],No changes
IFgxt,293.15,101.0,1037.27,Iglesias-Otero et al. (2008b),Liquid,0.2733,1-butyl-3-methylimidazolium methyl sulfate,,,CCCC[n+]1ccn(C)c1.COS(=O)(=O)[O-],1-butyl-3-methylimidazolium methyl sulfate,AAwHNg,CCO,ethanol,AAIsrh,CCCC[n+]1ccn(C)c1,COS(=O)(=O)[O-],2,,,,3141,False,CCCC[n+]1ccn(C)c1.COS(=O)(=O)[O-],No changes
IFgxt,293.15,101.0,1073.29,Iglesias-Otero et al. (2008b),Liquid,0.3516,1-butyl-3-methylimidazolium methyl sulfate,,,CCCC[n+]1ccn(C)c1.COS(=O)(=O)[O-],1-butyl-3-methylimidazolium methyl sulfate,AAwHNg,CCO,ethanol,AAIsrh,CCCC[n+]1ccn(C)c1,COS(=O)(=O)[O-],2,,,,3142,False,CCCC[n+]1ccn(C)c1.COS(=O)(=O)[O-],No changes
IFgxt,293.15,101.0,1104.9,Iglesias-Otero et al. (2008b),Liquid,0.4381,1-butyl-3-methylimidazolium methyl sulfate,,,CCCC[n+]1ccn(C)c1.COS(=O)(=O)[O-],1-butyl-3-methylimidazolium methyl sulfate,AAwHNg,CCO,ethanol,AAIsrh,CCCC[n+]1ccn(C)c1,COS(=O)(=O)[O-],2,,,,3143,False,CCCC[n+]1ccn(C)c1.COS(=O)(=O)[O-],No changes
IFgxt,293.15,101.0,1132.61,Iglesias-Otero et al. (2008b),Liquid,0.5335,1-butyl-3-methylimidazolium methyl sulfate,,,CCCC[n+]1ccn(C)c1.COS(=O)(=O)[O-],1-butyl-3-methylimidazolium methyl sulfate,AAwHNg,CCO,ethanol,AAIsrh,CCCC[n+]1ccn(C)c1,COS(=O)(=O)[O-],2,,,,3144,False,CCCC[n+]1ccn(C)c1.COS(=O)(=O)[O-],No changes
IFgxt,293.15,101.0,1141.96,Iglesias-Otero et al. (2008b),Liquid,0.5712,1-butyl-3-methylimidazolium methyl sulfate,,,CCCC[n+]1ccn(C)c1.COS(=O)(=O)[O-],1-butyl-3-methylimidazolium methyl sulfate,AAwHNg,CCO,ethanol,AAIsrh,CCCC[n+]1ccn(C)c1,COS(=O)(=O)[O-],2,,,,3145,False,CCCC[n+]1ccn(C)c1.COS(=O)(=O)[O-],No changes
IFgxt,293.15,101.0,1163.83,Iglesias-Otero et al. (2008b),Liquid,0.6742,1-butyl-3-methylimidazolium methyl sulfate,,,CCCC[n+]1ccn(C)c1.COS(=O)(=O)[O-],1-butyl-3-methylimidazolium methyl sulfate,AAwHNg,CCO,ethanol,AAIsrh,CCCC[n+]1ccn(C)c1,COS(=O)(=O)[O-],2,,,,3146,False,CCCC[n+]1ccn(C)c1.COS(=O)(=O)[O-],No changes
IFgxt,293.15,101.0,1180.16,Iglesias-Otero et al. (2008b),Liquid,0.7665,1-butyl-3-methylimidazolium methyl sulfate,,,CCCC[n+]1ccn(C)c1.COS(=O)(=O)[O-],1-butyl-3-methylimidazolium methyl sulfate,AAwHNg,CCO,ethanol,AAIsrh,CCCC[n+]1ccn(C)c1,COS(=O)(=O)[O-],2,,,,3147,False,CCCC[n+]1ccn(C)c1.COS(=O)(=O)[O-],No changes
IFgxt,293.15,101.0,1192.27,Iglesias-Otero et al. (2008b),Liquid,0.8482,1-butyl-3-methylimidazolium methyl sulfate,,,CCCC[n+]1ccn(C)c1.COS(=O)(=O)[O-],1-butyl-3-methylimidazolium methyl sulfate,AAwHNg,CCO,ethanol,AAIsrh,CCCC[n+]1ccn(C)c1,COS(=O)(=O)[O-],2,,,,3148,False,CCCC[n+]1ccn(C)c1.COS(=O)(=O)[O-],No changes
IFgxt,293.15,101.0,1202.35,Iglesias-Otero et al. (2008b),Liquid,0.9248,1-butyl-3-methylimidazolium methyl sulfate,,,CCCC[n+]1ccn(C)c1.COS(=O)(=O)[O-],1-butyl-3-methylimidazolium methyl sulfate,AAwHNg,CCO,ethanol,AAIsrh,CCCC[n+]1ccn(C)c1,COS(=O)(=O)[O-],2,,,,3149,False,CCCC[n+]1ccn(C)c1.COS(=O)(=O)[O-],No changes
IFgxt,293.15,101.0,1211.17,Iglesias-Otero et al. (2008b),Liquid,1.0,1-butyl-3-methylimidazolium methyl sulfate,,,CCCC[n+]1ccn(C)c1.COS(=O)(=O)[O-],1-butyl-3-methylimidazolium methyl sulfate,AAwHNg,CCO,ethanol,AAIsrh,CCCC[n+]1ccn(C)c1,COS(=O)(=O)[O-],2,,,,3150,False,CCCC[n+]1ccn(C)c1.COS(=O)(=O)[O-],No changes
IFgxt,303.15,101.0,780.94,Iglesias-Otero et al. (2008b),Liquid,0.0,1-butyl-3-methylimidazolium methyl sulfate,,,CCCC[n+]1ccn(C)c1.COS(=O)(=O)[O-],1-butyl-3-methylimidazolium methyl sulfate,AAwHNg,CCO,ethanol,AAIsrh,CCCC[n+]1ccn(C)c1,COS(=O)(=O)[O-],2,,,,3151,False,CCCC[n+]1ccn(C)c1.COS(=O)(=O)[O-],No changes
IFgxt,303.15,101.0,846.48,Iglesias-Otero et al. (2008b),Liquid,0.0459,1-butyl-3-methylimidazolium methyl sulfate,,,CCCC[n+]1ccn(C)c1.COS(=O)(=O)[O-],1-butyl-3-methylimidazolium methyl sulfate,AAwHNg,CCO,ethanol,AAIsrh,CCCC[n+]1ccn(C)c1,COS(=O)(=O)[O-],2,,,,3152,False,CCCC[n+]1ccn(C)c1.COS(=O)(=O)[O-],No changes
IFgxt,303.15,101.0,905.23,Iglesias-Otero et al. (2008b),Liquid,0.0987,1-butyl-3-methylimidazolium methyl sulfate,,,CCCC[n+]1ccn(C)c1.COS(=O)(=O)[O-],1-butyl-3-methylimidazolium methyl sulfate,AAwHNg,CCO,ethanol,AAIsrh,CCCC[n+]1ccn(C)c1,COS(=O)(=O)[O-],2,,,,3153,False,CCCC[n+]1ccn(C)c1.COS(=O)(=O)[O-],No changes
IFgxt,303.15,101.0,944.14,Iglesias-Otero et al. (2008b),Liquid,0.142,1-butyl-3-methylimidazolium methyl sulfate,,,CCCC[n+]1ccn(C)c1.COS(=O)(=O)[O-],1-butyl-3-methylimidazolium methyl sulfate,AAwHNg,CCO,ethanol,AAIsrh,CCCC[n+]1ccn(C)c1,COS(=O)(=O)[O-],2,,,,3154,False,CCCC[n+]1ccn(C)c1.COS(=O)(=O)[O-],No changes
IFgxt,303.15,101.0,980.49,Iglesias-Otero et al. (2008b),Liquid,0.1905,1-butyl-3-methylimidazolium methyl sulfate,,,CCCC[n+]1ccn(C)c1.COS(=O)(=O)[O-],1-butyl-3-methylimidazolium methyl sulfate,AAwHNg,CCO,ethanol,AAIsrh,CCCC[n+]1ccn(C)c1,COS(=O)(=O)[O-],2,,,,3155,False,CCCC[n+]1ccn(C)c1.COS(=O)(=O)[O-],No changes
IFgxt,303.15,101.0,1009.19,Iglesias-Otero et al. (2008b),Liquid,0.2357,1-butyl-3-methylimidazolium methyl sulfate,,,CCCC[n+]1ccn(C)c1.COS(=O)(=O)[O-],1-butyl-3-methylimidazolium methyl sulfate,AAwHNg,CCO,ethanol,AAIsrh,CCCC[n+]1ccn(C)c1,COS(=O)(=O)[O-],2,,,,3156,False,CCCC[n+]1ccn(C)c1.COS(=O)(=O)[O-],No changes
IFgxt,303.15,101.0,1029.8,Iglesias-Otero et al. (2008b),Liquid,0.2733,1-butyl-3-methylimidazolium methyl sulfate,,,CCCC[n+]1ccn(C)c1.COS(=O)(=O)[O-],1-butyl-3-methylimidazolium methyl sulfate,AAwHNg,CCO,ethanol,AAIsrh,CCCC[n+]1ccn(C)c1,COS(=O)(=O)[O-],2,,,,3157,False,CCCC[n+]1ccn(C)c1.COS(=O)(=O)[O-],No changes
IFgxt,303.15,101.0,1065.97,Iglesias-Otero et al. (2008b),Liquid,0.3516,1-butyl-3-methylimidazolium methyl sulfate,,,CCCC[n+]1ccn(C)c1.COS(=O)(=O)[O-],1-butyl-3-methylimidazolium methyl sulfate,AAwHNg,CCO,ethanol,AAIsrh,CCCC[n+]1ccn(C)c1,COS(=O)(=O)[O-],2,,,,3158,False,CCCC[n+]1ccn(C)c1.COS(=O)(=O)[O-],No changes
IFgxt,303.15,101.0,1097.71,Iglesias-Otero et al. (2008b),Liquid,0.4381,1-butyl-3-methylimidazolium methyl sulfate,,,CCCC[n+]1ccn(C)c1.COS(=O)(=O)[O-],1-butyl-3-methylimidazolium methyl sulfate,AAwHNg,CCO,ethanol,AAIsrh,CCCC[n+]1ccn(C)c1,COS(=O)(=O)[O-],2,,,,3159,False,CCCC[n+]1ccn(C)c1.COS(=O)(=O)[O-],No changes
IFgxt,303.15,101.0,1125.56,Iglesias-Otero et al. (2008b),Liquid,0.5335,1-butyl-3-methylimidazolium methyl sulfate,,,CCCC[n+]1ccn(C)c1.COS(=O)(=O)[O-],1-butyl-3-methylimidazolium methyl sulfate,AAwHNg,CCO,ethanol,AAIsrh,CCCC[n+]1ccn(C)c1,COS(=O)(=O)[O-],2,,,,3160,False,CCCC[n+]1ccn(C)c1.COS(=O)(=O)[O-],No changes
IFgxt,303.15,101.0,1134.95,Iglesias-Otero et al. (2008b),Liquid,0.5712,1-butyl-3-methylimidazolium methyl sulfate,,,CCCC[n+]1ccn(C)c1.COS(=O)(=O)[O-],1-butyl-3-methylimidazolium methyl sulfate,AAwHNg,CCO,ethanol,AAIsrh,CCCC[n+]1ccn(C)c1,COS(=O)(=O)[O-],2,,,,3161,False,CCCC[n+]1ccn(C)c1.COS(=O)(=O)[O-],No changes
IFgxt,303.15,101.0,1156.95,Iglesias-Otero et al. (2008b),Liquid,0.6742,1-butyl-3-methylimidazolium methyl sulfate,,,CCCC[n+]1ccn(C)c1.COS(=O)(=O)[O-],1-butyl-3-methylimidazolium methyl sulfate,AAwHNg,CCO,ethanol,AAIsrh,CCCC[n+]1ccn(C)c1,COS(=O)(=O)[O-],2,,,,3162,False,CCCC[n+]1ccn(C)c1.COS(=O)(=O)[O-],No changes
IFgxt,303.15,101.0,1173.37,Iglesias-Otero et al. (2008b),Liquid,0.7665,1-butyl-3-methylimidazolium methyl sulfate,,,CCCC[n+]1ccn(C)c1.COS(=O)(=O)[O-],1-butyl-3-methylimidazolium methyl sulfate,AAwHNg,CCO,ethanol,AAIsrh,CCCC[n+]1ccn(C)c1,COS(=O)(=O)[O-],2,,,,3163,False,CCCC[n+]1ccn(C)c1.COS(=O)(=O)[O-],No changes
IFgxt,303.15,101.0,1185.55,Iglesias-Otero et al. (2008b),Liquid,0.8482,1-butyl-3-methylimidazolium methyl sulfate,,,CCCC[n+]1ccn(C)c1.COS(=O)(=O)[O-],1-butyl-3-methylimidazolium methyl sulfate,AAwHNg,CCO,ethanol,AAIsrh,CCCC[n+]1ccn(C)c1,COS(=O)(=O)[O-],2,,,,3164,False,CCCC[n+]1ccn(C)c1.COS(=O)(=O)[O-],No changes
IFgxt,303.15,101.0,1195.72,Iglesias-Otero et al. (2008b),Liquid,0.9248,1-butyl-3-methylimidazolium methyl sulfate,,,CCCC[n+]1ccn(C)c1.COS(=O)(=O)[O-],1-butyl-3-methylimidazolium methyl sulfate,AAwHNg,CCO,ethanol,AAIsrh,CCCC[n+]1ccn(C)c1,COS(=O)(=O)[O-],2,,,,3165,False,CCCC[n+]1ccn(C)c1.COS(=O)(=O)[O-],No changes
IFgxt,303.15,101.0,1204.48,Iglesias-Otero et al. (2008b),Liquid,1.0,1-butyl-3-methylimidazolium methyl sulfate,,,CCCC[n+]1ccn(C)c1.COS(=O)(=O)[O-],1-butyl-3-methylimidazolium methyl sulfate,AAwHNg,CCO,ethanol,AAIsrh,CCCC[n+]1ccn(C)c1,COS(=O)(=O)[O-],2,,,,3166,False,CCCC[n+]1ccn(C)c1.COS(=O)(=O)[O-],No changes
IFgxt,313.15,101.0,772.2,Iglesias-Otero et al. (2008b),Liquid,0.0,1-butyl-3-methylimidazolium methyl sulfate,,,CCCC[n+]1ccn(C)c1.COS(=O)(=O)[O-],1-butyl-3-methylimidazolium methyl sulfate,AAwHNg,CCO,ethanol,AAIsrh,CCCC[n+]1ccn(C)c1,COS(=O)(=O)[O-],2,,,,3167,False,CCCC[n+]1ccn(C)c1.COS(=O)(=O)[O-],No changes
IFgxt,313.15,101.0,838.14,Iglesias-Otero et al. (2008b),Liquid,0.0459,1-butyl-3-methylimidazolium methyl sulfate,,,CCCC[n+]1ccn(C)c1.COS(=O)(=O)[O-],1-butyl-3-methylimidazolium methyl sulfate,AAwHNg,CCO,ethanol,AAIsrh,CCCC[n+]1ccn(C)c1,COS(=O)(=O)[O-],2,,,,3168,False,CCCC[n+]1ccn(C)c1.COS(=O)(=O)[O-],No changes
IFgxt,313.15,101.0,897.17,Iglesias-Otero et al. (2008b),Liquid,0.0987,1-butyl-3-methylimidazolium methyl sulfate,,,CCCC[n+]1ccn(C)c1.COS(=O)(=O)[O-],1-butyl-3-methylimidazolium methyl sulfate,AAwHNg,CCO,ethanol,AAIsrh,CCCC[n+]1ccn(C)c1,COS(=O)(=O)[O-],2,,,,3169,False,CCCC[n+]1ccn(C)c1.COS(=O)(=O)[O-],No changes
IFgxt,313.15,101.0,936.26,Iglesias-Otero et al. (2008b),Liquid,0.142,1-butyl-3-methylimidazolium methyl sulfate,,,CCCC[n+]1ccn(C)c1.COS(=O)(=O)[O-],1-butyl-3-methylimidazolium methyl sulfate,AAwHNg,CCO,ethanol,AAIsrh,CCCC[n+]1ccn(C)c1,COS(=O)(=O)[O-],2,,,,3170,False,CCCC[n+]1ccn(C)c1.COS(=O)(=O)[O-],No changes