setid,Temperature (K),Pressure (kPa),Density (kg/m3),reference,phases,Mole fraction,Mole fraction of compound name,Weight fraction,Weight fraction of compound name,IL_SMILES,IL_name,IL_ID,Solvent_SMILES,Solvent_name,Solvent_ID,IL_cation_SMILES,IL_anion_SMILES,IL_component_number,Mole fraction of solvent,IL_MW,Solvent_MW,Record_ID,Contains_Metal,Standardized_IL_SMILES,Changes
KLxie,293.15,101.0,883.9,Garcia-Miaja et al. (2008),Liquid,0.0523,1-ethyl-3-methylimidazolium trifluoromethanesulfonate,,,CC[n+]1ccn(C)c1.O=S(=O)([O-])C(F)(F)F,1-ethyl-3-methylimidazolium trifluoromethanesulfonate,AAyCVz,CCO,ethanol,AAIsrh,CC[n+]1ccn(C)c1,O=S(=O)([O-])C(F)(F)F,2,,,,1946,False,CC[n+]1ccn(C)c1.O=S(=O)([O-])C(F)(F)F,No changes
KLxie,298.15,101.0,879.6,Garcia-Miaja et al. (2008),Liquid,0.0523,1-ethyl-3-methylimidazolium trifluoromethanesulfonate,,,CC[n+]1ccn(C)c1.O=S(=O)([O-])C(F)(F)F,1-ethyl-3-methylimidazolium trifluoromethanesulfonate,AAyCVz,CCO,ethanol,AAIsrh,CC[n+]1ccn(C)c1,O=S(=O)([O-])C(F)(F)F,2,,,,1947,False,CC[n+]1ccn(C)c1.O=S(=O)([O-])C(F)(F)F,No changes
KLxie,303.15,101.0,875.3,Garcia-Miaja et al. (2008),Liquid,0.0523,1-ethyl-3-methylimidazolium trifluoromethanesulfonate,,,CC[n+]1ccn(C)c1.O=S(=O)([O-])C(F)(F)F,1-ethyl-3-methylimidazolium trifluoromethanesulfonate,AAyCVz,CCO,ethanol,AAIsrh,CC[n+]1ccn(C)c1,O=S(=O)([O-])C(F)(F)F,2,,,,1948,False,CC[n+]1ccn(C)c1.O=S(=O)([O-])C(F)(F)F,No changes
KLxie,308.15,101.0,871.0,Garcia-Miaja et al. (2008),Liquid,0.0523,1-ethyl-3-methylimidazolium trifluoromethanesulfonate,,,CC[n+]1ccn(C)c1.O=S(=O)([O-])C(F)(F)F,1-ethyl-3-methylimidazolium trifluoromethanesulfonate,AAyCVz,CCO,ethanol,AAIsrh,CC[n+]1ccn(C)c1,O=S(=O)([O-])C(F)(F)F,2,,,,1949,False,CC[n+]1ccn(C)c1.O=S(=O)([O-])C(F)(F)F,No changes
KLxie,313.15,101.0,866.7,Garcia-Miaja et al. (2008),Liquid,0.0523,1-ethyl-3-methylimidazolium trifluoromethanesulfonate,,,CC[n+]1ccn(C)c1.O=S(=O)([O-])C(F)(F)F,1-ethyl-3-methylimidazolium trifluoromethanesulfonate,AAyCVz,CCO,ethanol,AAIsrh,CC[n+]1ccn(C)c1,O=S(=O)([O-])C(F)(F)F,2,,,,1950,False,CC[n+]1ccn(C)c1.O=S(=O)([O-])C(F)(F)F,No changes
KLxie,318.15,101.0,862.2,Garcia-Miaja et al. (2008),Liquid,0.0523,1-ethyl-3-methylimidazolium trifluoromethanesulfonate,,,CC[n+]1ccn(C)c1.O=S(=O)([O-])C(F)(F)F,1-ethyl-3-methylimidazolium trifluoromethanesulfonate,AAyCVz,CCO,ethanol,AAIsrh,CC[n+]1ccn(C)c1,O=S(=O)([O-])C(F)(F)F,2,,,,1951,False,CC[n+]1ccn(C)c1.O=S(=O)([O-])C(F)(F)F,No changes
KLxie,293.15,101.0,953.0,Garcia-Miaja et al. (2008),Liquid,0.1,1-ethyl-3-methylimidazolium trifluoromethanesulfonate,,,CC[n+]1ccn(C)c1.O=S(=O)([O-])C(F)(F)F,1-ethyl-3-methylimidazolium trifluoromethanesulfonate,AAyCVz,CCO,ethanol,AAIsrh,CC[n+]1ccn(C)c1,O=S(=O)([O-])C(F)(F)F,2,,,,1952,False,CC[n+]1ccn(C)c1.O=S(=O)([O-])C(F)(F)F,No changes
KLxie,298.15,101.0,948.7,Garcia-Miaja et al. (2008),Liquid,0.1,1-ethyl-3-methylimidazolium trifluoromethanesulfonate,,,CC[n+]1ccn(C)c1.O=S(=O)([O-])C(F)(F)F,1-ethyl-3-methylimidazolium trifluoromethanesulfonate,AAyCVz,CCO,ethanol,AAIsrh,CC[n+]1ccn(C)c1,O=S(=O)([O-])C(F)(F)F,2,,,,1953,False,CC[n+]1ccn(C)c1.O=S(=O)([O-])C(F)(F)F,No changes
KLxie,303.15,101.0,944.4,Garcia-Miaja et al. (2008),Liquid,0.1,1-ethyl-3-methylimidazolium trifluoromethanesulfonate,,,CC[n+]1ccn(C)c1.O=S(=O)([O-])C(F)(F)F,1-ethyl-3-methylimidazolium trifluoromethanesulfonate,AAyCVz,CCO,ethanol,AAIsrh,CC[n+]1ccn(C)c1,O=S(=O)([O-])C(F)(F)F,2,,,,1954,False,CC[n+]1ccn(C)c1.O=S(=O)([O-])C(F)(F)F,No changes
KLxie,308.15,101.0,940.2,Garcia-Miaja et al. (2008),Liquid,0.1,1-ethyl-3-methylimidazolium trifluoromethanesulfonate,,,CC[n+]1ccn(C)c1.O=S(=O)([O-])C(F)(F)F,1-ethyl-3-methylimidazolium trifluoromethanesulfonate,AAyCVz,CCO,ethanol,AAIsrh,CC[n+]1ccn(C)c1,O=S(=O)([O-])C(F)(F)F,2,,,,1955,False,CC[n+]1ccn(C)c1.O=S(=O)([O-])C(F)(F)F,No changes
KLxie,313.15,101.0,935.8,Garcia-Miaja et al. (2008),Liquid,0.1,1-ethyl-3-methylimidazolium trifluoromethanesulfonate,,,CC[n+]1ccn(C)c1.O=S(=O)([O-])C(F)(F)F,1-ethyl-3-methylimidazolium trifluoromethanesulfonate,AAyCVz,CCO,ethanol,AAIsrh,CC[n+]1ccn(C)c1,O=S(=O)([O-])C(F)(F)F,2,,,,1956,False,CC[n+]1ccn(C)c1.O=S(=O)([O-])C(F)(F)F,No changes
KLxie,318.15,101.0,931.4,Garcia-Miaja et al. (2008),Liquid,0.1,1-ethyl-3-methylimidazolium trifluoromethanesulfonate,,,CC[n+]1ccn(C)c1.O=S(=O)([O-])C(F)(F)F,1-ethyl-3-methylimidazolium trifluoromethanesulfonate,AAyCVz,CCO,ethanol,AAIsrh,CC[n+]1ccn(C)c1,O=S(=O)([O-])C(F)(F)F,2,,,,1957,False,CC[n+]1ccn(C)c1.O=S(=O)([O-])C(F)(F)F,No changes
KLxie,293.15,101.0,1059.7,Garcia-Miaja et al. (2008),Liquid,0.1959,1-ethyl-3-methylimidazolium trifluoromethanesulfonate,,,CC[n+]1ccn(C)c1.O=S(=O)([O-])C(F)(F)F,1-ethyl-3-methylimidazolium trifluoromethanesulfonate,AAyCVz,CCO,ethanol,AAIsrh,CC[n+]1ccn(C)c1,O=S(=O)([O-])C(F)(F)F,2,,,,1958,False,CC[n+]1ccn(C)c1.O=S(=O)([O-])C(F)(F)F,No changes
KLxie,298.15,101.0,1055.4,Garcia-Miaja et al. (2008),Liquid,0.1959,1-ethyl-3-methylimidazolium trifluoromethanesulfonate,,,CC[n+]1ccn(C)c1.O=S(=O)([O-])C(F)(F)F,1-ethyl-3-methylimidazolium trifluoromethanesulfonate,AAyCVz,CCO,ethanol,AAIsrh,CC[n+]1ccn(C)c1,O=S(=O)([O-])C(F)(F)F,2,,,,1959,False,CC[n+]1ccn(C)c1.O=S(=O)([O-])C(F)(F)F,No changes
KLxie,303.15,101.0,1051.1,Garcia-Miaja et al. (2008),Liquid,0.1959,1-ethyl-3-methylimidazolium trifluoromethanesulfonate,,,CC[n+]1ccn(C)c1.O=S(=O)([O-])C(F)(F)F,1-ethyl-3-methylimidazolium trifluoromethanesulfonate,AAyCVz,CCO,ethanol,AAIsrh,CC[n+]1ccn(C)c1,O=S(=O)([O-])C(F)(F)F,2,,,,1960,False,CC[n+]1ccn(C)c1.O=S(=O)([O-])C(F)(F)F,No changes
KLxie,308.15,101.0,1046.8,Garcia-Miaja et al. (2008),Liquid,0.1959,1-ethyl-3-methylimidazolium trifluoromethanesulfonate,,,CC[n+]1ccn(C)c1.O=S(=O)([O-])C(F)(F)F,1-ethyl-3-methylimidazolium trifluoromethanesulfonate,AAyCVz,CCO,ethanol,AAIsrh,CC[n+]1ccn(C)c1,O=S(=O)([O-])C(F)(F)F,2,,,,1961,False,CC[n+]1ccn(C)c1.O=S(=O)([O-])C(F)(F)F,No changes
KLxie,313.15,101.0,1042.5,Garcia-Miaja et al. (2008),Liquid,0.1959,1-ethyl-3-methylimidazolium trifluoromethanesulfonate,,,CC[n+]1ccn(C)c1.O=S(=O)([O-])C(F)(F)F,1-ethyl-3-methylimidazolium trifluoromethanesulfonate,AAyCVz,CCO,ethanol,AAIsrh,CC[n+]1ccn(C)c1,O=S(=O)([O-])C(F)(F)F,2,,,,1962,False,CC[n+]1ccn(C)c1.O=S(=O)([O-])C(F)(F)F,No changes
KLxie,318.15,101.0,1038.1,Garcia-Miaja et al. (2008),Liquid,0.1959,1-ethyl-3-methylimidazolium trifluoromethanesulfonate,,,CC[n+]1ccn(C)c1.O=S(=O)([O-])C(F)(F)F,1-ethyl-3-methylimidazolium trifluoromethanesulfonate,AAyCVz,CCO,ethanol,AAIsrh,CC[n+]1ccn(C)c1,O=S(=O)([O-])C(F)(F)F,2,,,,1963,False,CC[n+]1ccn(C)c1.O=S(=O)([O-])C(F)(F)F,No changes
KLxie,293.15,101.0,1138.5,Garcia-Miaja et al. (2008),Liquid,0.2927,1-ethyl-3-methylimidazolium trifluoromethanesulfonate,,,CC[n+]1ccn(C)c1.O=S(=O)([O-])C(F)(F)F,1-ethyl-3-methylimidazolium trifluoromethanesulfonate,AAyCVz,CCO,ethanol,AAIsrh,CC[n+]1ccn(C)c1,O=S(=O)([O-])C(F)(F)F,2,,,,1964,False,CC[n+]1ccn(C)c1.O=S(=O)([O-])C(F)(F)F,No changes
KLxie,298.15,101.0,1134.1,Garcia-Miaja et al. (2008),Liquid,0.2927,1-ethyl-3-methylimidazolium trifluoromethanesulfonate,,,CC[n+]1ccn(C)c1.O=S(=O)([O-])C(F)(F)F,1-ethyl-3-methylimidazolium trifluoromethanesulfonate,AAyCVz,CCO,ethanol,AAIsrh,CC[n+]1ccn(C)c1,O=S(=O)([O-])C(F)(F)F,2,,,,1965,False,CC[n+]1ccn(C)c1.O=S(=O)([O-])C(F)(F)F,No changes
KLxie,303.15,101.0,1129.8,Garcia-Miaja et al. (2008),Liquid,0.2927,1-ethyl-3-methylimidazolium trifluoromethanesulfonate,,,CC[n+]1ccn(C)c1.O=S(=O)([O-])C(F)(F)F,1-ethyl-3-methylimidazolium trifluoromethanesulfonate,AAyCVz,CCO,ethanol,AAIsrh,CC[n+]1ccn(C)c1,O=S(=O)([O-])C(F)(F)F,2,,,,1966,False,CC[n+]1ccn(C)c1.O=S(=O)([O-])C(F)(F)F,No changes
KLxie,308.15,101.0,1125.6,Garcia-Miaja et al. (2008),Liquid,0.2927,1-ethyl-3-methylimidazolium trifluoromethanesulfonate,,,CC[n+]1ccn(C)c1.O=S(=O)([O-])C(F)(F)F,1-ethyl-3-methylimidazolium trifluoromethanesulfonate,AAyCVz,CCO,ethanol,AAIsrh,CC[n+]1ccn(C)c1,O=S(=O)([O-])C(F)(F)F,2,,,,1967,False,CC[n+]1ccn(C)c1.O=S(=O)([O-])C(F)(F)F,No changes
KLxie,313.15,101.0,1121.3,Garcia-Miaja et al. (2008),Liquid,0.2927,1-ethyl-3-methylimidazolium trifluoromethanesulfonate,,,CC[n+]1ccn(C)c1.O=S(=O)([O-])C(F)(F)F,1-ethyl-3-methylimidazolium trifluoromethanesulfonate,AAyCVz,CCO,ethanol,AAIsrh,CC[n+]1ccn(C)c1,O=S(=O)([O-])C(F)(F)F,2,,,,1968,False,CC[n+]1ccn(C)c1.O=S(=O)([O-])C(F)(F)F,No changes
KLxie,318.15,101.0,1116.9,Garcia-Miaja et al. (2008),Liquid,0.2927,1-ethyl-3-methylimidazolium trifluoromethanesulfonate,,,CC[n+]1ccn(C)c1.O=S(=O)([O-])C(F)(F)F,1-ethyl-3-methylimidazolium trifluoromethanesulfonate,AAyCVz,CCO,ethanol,AAIsrh,CC[n+]1ccn(C)c1,O=S(=O)([O-])C(F)(F)F,2,,,,1969,False,CC[n+]1ccn(C)c1.O=S(=O)([O-])C(F)(F)F,No changes
KLxie,293.15,101.0,1194.5,Garcia-Miaja et al. (2008),Liquid,0.3819,1-ethyl-3-methylimidazolium trifluoromethanesulfonate,,,CC[n+]1ccn(C)c1.O=S(=O)([O-])C(F)(F)F,1-ethyl-3-methylimidazolium trifluoromethanesulfonate,AAyCVz,CCO,ethanol,AAIsrh,CC[n+]1ccn(C)c1,O=S(=O)([O-])C(F)(F)F,2,,,,1970,False,CC[n+]1ccn(C)c1.O=S(=O)([O-])C(F)(F)F,No changes
KLxie,298.15,101.0,1190.2,Garcia-Miaja et al. (2008),Liquid,0.3819,1-ethyl-3-methylimidazolium trifluoromethanesulfonate,,,CC[n+]1ccn(C)c1.O=S(=O)([O-])C(F)(F)F,1-ethyl-3-methylimidazolium trifluoromethanesulfonate,AAyCVz,CCO,ethanol,AAIsrh,CC[n+]1ccn(C)c1,O=S(=O)([O-])C(F)(F)F,2,,,,1971,False,CC[n+]1ccn(C)c1.O=S(=O)([O-])C(F)(F)F,No changes
KLxie,303.15,101.0,1185.9,Garcia-Miaja et al. (2008),Liquid,0.3819,1-ethyl-3-methylimidazolium trifluoromethanesulfonate,,,CC[n+]1ccn(C)c1.O=S(=O)([O-])C(F)(F)F,1-ethyl-3-methylimidazolium trifluoromethanesulfonate,AAyCVz,CCO,ethanol,AAIsrh,CC[n+]1ccn(C)c1,O=S(=O)([O-])C(F)(F)F,2,,,,1972,False,CC[n+]1ccn(C)c1.O=S(=O)([O-])C(F)(F)F,No changes
KLxie,308.15,101.0,1181.6,Garcia-Miaja et al. (2008),Liquid,0.3819,1-ethyl-3-methylimidazolium trifluoromethanesulfonate,,,CC[n+]1ccn(C)c1.O=S(=O)([O-])C(F)(F)F,1-ethyl-3-methylimidazolium trifluoromethanesulfonate,AAyCVz,CCO,ethanol,AAIsrh,CC[n+]1ccn(C)c1,O=S(=O)([O-])C(F)(F)F,2,,,,1973,False,CC[n+]1ccn(C)c1.O=S(=O)([O-])C(F)(F)F,No changes
KLxie,313.15,101.0,1177.3,Garcia-Miaja et al. (2008),Liquid,0.3819,1-ethyl-3-methylimidazolium trifluoromethanesulfonate,,,CC[n+]1ccn(C)c1.O=S(=O)([O-])C(F)(F)F,1-ethyl-3-methylimidazolium trifluoromethanesulfonate,AAyCVz,CCO,ethanol,AAIsrh,CC[n+]1ccn(C)c1,O=S(=O)([O-])C(F)(F)F,2,,,,1974,False,CC[n+]1ccn(C)c1.O=S(=O)([O-])C(F)(F)F,No changes
KLxie,318.15,101.0,1173.0,Garcia-Miaja et al. (2008),Liquid,0.3819,1-ethyl-3-methylimidazolium trifluoromethanesulfonate,,,CC[n+]1ccn(C)c1.O=S(=O)([O-])C(F)(F)F,1-ethyl-3-methylimidazolium trifluoromethanesulfonate,AAyCVz,CCO,ethanol,AAIsrh,CC[n+]1ccn(C)c1,O=S(=O)([O-])C(F)(F)F,2,,,,1975,False,CC[n+]1ccn(C)c1.O=S(=O)([O-])C(F)(F)F,No changes
KLxie,293.15,101.0,1248.4,Garcia-Miaja et al. (2008),Liquid,0.4917,1-ethyl-3-methylimidazolium trifluoromethanesulfonate,,,CC[n+]1ccn(C)c1.O=S(=O)([O-])C(F)(F)F,1-ethyl-3-methylimidazolium trifluoromethanesulfonate,AAyCVz,CCO,ethanol,AAIsrh,CC[n+]1ccn(C)c1,O=S(=O)([O-])C(F)(F)F,2,,,,1976,False,CC[n+]1ccn(C)c1.O=S(=O)([O-])C(F)(F)F,No changes
KLxie,298.15,101.0,1244.1,Garcia-Miaja et al. (2008),Liquid,0.4917,1-ethyl-3-methylimidazolium trifluoromethanesulfonate,,,CC[n+]1ccn(C)c1.O=S(=O)([O-])C(F)(F)F,1-ethyl-3-methylimidazolium trifluoromethanesulfonate,AAyCVz,CCO,ethanol,AAIsrh,CC[n+]1ccn(C)c1,O=S(=O)([O-])C(F)(F)F,2,,,,1977,False,CC[n+]1ccn(C)c1.O=S(=O)([O-])C(F)(F)F,No changes
KLxie,303.15,101.0,1239.9,Garcia-Miaja et al. (2008),Liquid,0.4917,1-ethyl-3-methylimidazolium trifluoromethanesulfonate,,,CC[n+]1ccn(C)c1.O=S(=O)([O-])C(F)(F)F,1-ethyl-3-methylimidazolium trifluoromethanesulfonate,AAyCVz,CCO,ethanol,AAIsrh,CC[n+]1ccn(C)c1,O=S(=O)([O-])C(F)(F)F,2,,,,1978,False,CC[n+]1ccn(C)c1.O=S(=O)([O-])C(F)(F)F,No changes
KLxie,308.15,101.0,1235.6,Garcia-Miaja et al. (2008),Liquid,0.4917,1-ethyl-3-methylimidazolium trifluoromethanesulfonate,,,CC[n+]1ccn(C)c1.O=S(=O)([O-])C(F)(F)F,1-ethyl-3-methylimidazolium trifluoromethanesulfonate,AAyCVz,CCO,ethanol,AAIsrh,CC[n+]1ccn(C)c1,O=S(=O)([O-])C(F)(F)F,2,,,,1979,False,CC[n+]1ccn(C)c1.O=S(=O)([O-])C(F)(F)F,No changes
KLxie,313.15,101.0,1231.4,Garcia-Miaja et al. (2008),Liquid,0.4917,1-ethyl-3-methylimidazolium trifluoromethanesulfonate,,,CC[n+]1ccn(C)c1.O=S(=O)([O-])C(F)(F)F,1-ethyl-3-methylimidazolium trifluoromethanesulfonate,AAyCVz,CCO,ethanol,AAIsrh,CC[n+]1ccn(C)c1,O=S(=O)([O-])C(F)(F)F,2,,,,1980,False,CC[n+]1ccn(C)c1.O=S(=O)([O-])C(F)(F)F,No changes
KLxie,318.15,101.0,1227.1,Garcia-Miaja et al. (2008),Liquid,0.4917,1-ethyl-3-methylimidazolium trifluoromethanesulfonate,,,CC[n+]1ccn(C)c1.O=S(=O)([O-])C(F)(F)F,1-ethyl-3-methylimidazolium trifluoromethanesulfonate,AAyCVz,CCO,ethanol,AAIsrh,CC[n+]1ccn(C)c1,O=S(=O)([O-])C(F)(F)F,2,,,,1981,False,CC[n+]1ccn(C)c1.O=S(=O)([O-])C(F)(F)F,No changes
KLxie,293.15,101.0,1289.4,Garcia-Miaja et al. (2008),Liquid,0.5983,1-ethyl-3-methylimidazolium trifluoromethanesulfonate,,,CC[n+]1ccn(C)c1.O=S(=O)([O-])C(F)(F)F,1-ethyl-3-methylimidazolium trifluoromethanesulfonate,AAyCVz,CCO,ethanol,AAIsrh,CC[n+]1ccn(C)c1,O=S(=O)([O-])C(F)(F)F,2,,,,1982,False,CC[n+]1ccn(C)c1.O=S(=O)([O-])C(F)(F)F,No changes
KLxie,298.15,101.0,1285.1,Garcia-Miaja et al. (2008),Liquid,0.5983,1-ethyl-3-methylimidazolium trifluoromethanesulfonate,,,CC[n+]1ccn(C)c1.O=S(=O)([O-])C(F)(F)F,1-ethyl-3-methylimidazolium trifluoromethanesulfonate,AAyCVz,CCO,ethanol,AAIsrh,CC[n+]1ccn(C)c1,O=S(=O)([O-])C(F)(F)F,2,,,,1983,False,CC[n+]1ccn(C)c1.O=S(=O)([O-])C(F)(F)F,No changes
KLxie,303.15,101.0,1280.9,Garcia-Miaja et al. (2008),Liquid,0.5983,1-ethyl-3-methylimidazolium trifluoromethanesulfonate,,,CC[n+]1ccn(C)c1.O=S(=O)([O-])C(F)(F)F,1-ethyl-3-methylimidazolium trifluoromethanesulfonate,AAyCVz,CCO,ethanol,AAIsrh,CC[n+]1ccn(C)c1,O=S(=O)([O-])C(F)(F)F,2,,,,1984,False,CC[n+]1ccn(C)c1.O=S(=O)([O-])C(F)(F)F,No changes
KLxie,308.15,101.0,1276.7,Garcia-Miaja et al. (2008),Liquid,0.5983,1-ethyl-3-methylimidazolium trifluoromethanesulfonate,,,CC[n+]1ccn(C)c1.O=S(=O)([O-])C(F)(F)F,1-ethyl-3-methylimidazolium trifluoromethanesulfonate,AAyCVz,CCO,ethanol,AAIsrh,CC[n+]1ccn(C)c1,O=S(=O)([O-])C(F)(F)F,2,,,,1985,False,CC[n+]1ccn(C)c1.O=S(=O)([O-])C(F)(F)F,No changes
KLxie,313.15,101.0,1272.4,Garcia-Miaja et al. (2008),Liquid,0.5983,1-ethyl-3-methylimidazolium trifluoromethanesulfonate,,,CC[n+]1ccn(C)c1.O=S(=O)([O-])C(F)(F)F,1-ethyl-3-methylimidazolium trifluoromethanesulfonate,AAyCVz,CCO,ethanol,AAIsrh,CC[n+]1ccn(C)c1,O=S(=O)([O-])C(F)(F)F,2,,,,1986,False,CC[n+]1ccn(C)c1.O=S(=O)([O-])C(F)(F)F,No changes
KLxie,318.15,101.0,1268.2,Garcia-Miaja et al. (2008),Liquid,0.5983,1-ethyl-3-methylimidazolium trifluoromethanesulfonate,,,CC[n+]1ccn(C)c1.O=S(=O)([O-])C(F)(F)F,1-ethyl-3-methylimidazolium trifluoromethanesulfonate,AAyCVz,CCO,ethanol,AAIsrh,CC[n+]1ccn(C)c1,O=S(=O)([O-])C(F)(F)F,2,,,,1987,False,CC[n+]1ccn(C)c1.O=S(=O)([O-])C(F)(F)F,No changes
KLxie,293.15,101.0,1318.8,Garcia-Miaja et al. (2008),Liquid,0.6899,1-ethyl-3-methylimidazolium trifluoromethanesulfonate,,,CC[n+]1ccn(C)c1.O=S(=O)([O-])C(F)(F)F,1-ethyl-3-methylimidazolium trifluoromethanesulfonate,AAyCVz,CCO,ethanol,AAIsrh,CC[n+]1ccn(C)c1,O=S(=O)([O-])C(F)(F)F,2,,,,1988,False,CC[n+]1ccn(C)c1.O=S(=O)([O-])C(F)(F)F,No changes
KLxie,298.15,101.0,1314.5,Garcia-Miaja et al. (2008),Liquid,0.6899,1-ethyl-3-methylimidazolium trifluoromethanesulfonate,,,CC[n+]1ccn(C)c1.O=S(=O)([O-])C(F)(F)F,1-ethyl-3-methylimidazolium trifluoromethanesulfonate,AAyCVz,CCO,ethanol,AAIsrh,CC[n+]1ccn(C)c1,O=S(=O)([O-])C(F)(F)F,2,,,,1989,False,CC[n+]1ccn(C)c1.O=S(=O)([O-])C(F)(F)F,No changes
KLxie,303.15,101.0,1310.3,Garcia-Miaja et al. (2008),Liquid,0.6899,1-ethyl-3-methylimidazolium trifluoromethanesulfonate,,,CC[n+]1ccn(C)c1.O=S(=O)([O-])C(F)(F)F,1-ethyl-3-methylimidazolium trifluoromethanesulfonate,AAyCVz,CCO,ethanol,AAIsrh,CC[n+]1ccn(C)c1,O=S(=O)([O-])C(F)(F)F,2,,,,1990,False,CC[n+]1ccn(C)c1.O=S(=O)([O-])C(F)(F)F,No changes
KLxie,308.15,101.0,1306.1,Garcia-Miaja et al. (2008),Liquid,0.6899,1-ethyl-3-methylimidazolium trifluoromethanesulfonate,,,CC[n+]1ccn(C)c1.O=S(=O)([O-])C(F)(F)F,1-ethyl-3-methylimidazolium trifluoromethanesulfonate,AAyCVz,CCO,ethanol,AAIsrh,CC[n+]1ccn(C)c1,O=S(=O)([O-])C(F)(F)F,2,,,,1991,False,CC[n+]1ccn(C)c1.O=S(=O)([O-])C(F)(F)F,No changes
KLxie,313.15,101.0,1301.9,Garcia-Miaja et al. (2008),Liquid,0.6899,1-ethyl-3-methylimidazolium trifluoromethanesulfonate,,,CC[n+]1ccn(C)c1.O=S(=O)([O-])C(F)(F)F,1-ethyl-3-methylimidazolium trifluoromethanesulfonate,AAyCVz,CCO,ethanol,AAIsrh,CC[n+]1ccn(C)c1,O=S(=O)([O-])C(F)(F)F,2,,,,1992,False,CC[n+]1ccn(C)c1.O=S(=O)([O-])C(F)(F)F,No changes
KLxie,318.15,101.0,1297.7,Garcia-Miaja et al. (2008),Liquid,0.6899,1-ethyl-3-methylimidazolium trifluoromethanesulfonate,,,CC[n+]1ccn(C)c1.O=S(=O)([O-])C(F)(F)F,1-ethyl-3-methylimidazolium trifluoromethanesulfonate,AAyCVz,CCO,ethanol,AAIsrh,CC[n+]1ccn(C)c1,O=S(=O)([O-])C(F)(F)F,2,,,,1993,False,CC[n+]1ccn(C)c1.O=S(=O)([O-])C(F)(F)F,No changes
KLxie,293.15,101.0,1343.7,Garcia-Miaja et al. (2008),Liquid,0.7829,1-ethyl-3-methylimidazolium trifluoromethanesulfonate,,,CC[n+]1ccn(C)c1.O=S(=O)([O-])C(F)(F)F,1-ethyl-3-methylimidazolium trifluoromethanesulfonate,AAyCVz,CCO,ethanol,AAIsrh,CC[n+]1ccn(C)c1,O=S(=O)([O-])C(F)(F)F,2,,,,1994,False,CC[n+]1ccn(C)c1.O=S(=O)([O-])C(F)(F)F,No changes
KLxie,298.15,101.0,1339.4,Garcia-Miaja et al. (2008),Liquid,0.7829,1-ethyl-3-methylimidazolium trifluoromethanesulfonate,,,CC[n+]1ccn(C)c1.O=S(=O)([O-])C(F)(F)F,1-ethyl-3-methylimidazolium trifluoromethanesulfonate,AAyCVz,CCO,ethanol,AAIsrh,CC[n+]1ccn(C)c1,O=S(=O)([O-])C(F)(F)F,2,,,,1995,False,CC[n+]1ccn(C)c1.O=S(=O)([O-])C(F)(F)F,No changes
KLxie,303.15,101.0,1335.2,Garcia-Miaja et al. (2008),Liquid,0.7829,1-ethyl-3-methylimidazolium trifluoromethanesulfonate,,,CC[n+]1ccn(C)c1.O=S(=O)([O-])C(F)(F)F,1-ethyl-3-methylimidazolium trifluoromethanesulfonate,AAyCVz,CCO,ethanol,AAIsrh,CC[n+]1ccn(C)c1,O=S(=O)([O-])C(F)(F)F,2,,,,1996,False,CC[n+]1ccn(C)c1.O=S(=O)([O-])C(F)(F)F,No changes
KLxie,308.15,101.0,1331.0,Garcia-Miaja et al. (2008),Liquid,0.7829,1-ethyl-3-methylimidazolium trifluoromethanesulfonate,,,CC[n+]1ccn(C)c1.O=S(=O)([O-])C(F)(F)F,1-ethyl-3-methylimidazolium trifluoromethanesulfonate,AAyCVz,CCO,ethanol,AAIsrh,CC[n+]1ccn(C)c1,O=S(=O)([O-])C(F)(F)F,2,,,,1997,False,CC[n+]1ccn(C)c1.O=S(=O)([O-])C(F)(F)F,No changes
KLxie,313.15,101.0,1326.8,Garcia-Miaja et al. (2008),Liquid,0.7829,1-ethyl-3-methylimidazolium trifluoromethanesulfonate,,,CC[n+]1ccn(C)c1.O=S(=O)([O-])C(F)(F)F,1-ethyl-3-methylimidazolium trifluoromethanesulfonate,AAyCVz,CCO,ethanol,AAIsrh,CC[n+]1ccn(C)c1,O=S(=O)([O-])C(F)(F)F,2,,,,1998,False,CC[n+]1ccn(C)c1.O=S(=O)([O-])C(F)(F)F,No changes
KLxie,318.15,101.0,1322.6,Garcia-Miaja et al. (2008),Liquid,0.7829,1-ethyl-3-methylimidazolium trifluoromethanesulfonate,,,CC[n+]1ccn(C)c1.O=S(=O)([O-])C(F)(F)F,1-ethyl-3-methylimidazolium trifluoromethanesulfonate,AAyCVz,CCO,ethanol,AAIsrh,CC[n+]1ccn(C)c1,O=S(=O)([O-])C(F)(F)F,2,,,,1999,False,CC[n+]1ccn(C)c1.O=S(=O)([O-])C(F)(F)F,No changes
KLxie,293.15,101.0,1365.6,Garcia-Miaja et al. (2008),Liquid,0.8784,1-ethyl-3-methylimidazolium trifluoromethanesulfonate,,,CC[n+]1ccn(C)c1.O=S(=O)([O-])C(F)(F)F,1-ethyl-3-methylimidazolium trifluoromethanesulfonate,AAyCVz,CCO,ethanol,AAIsrh,CC[n+]1ccn(C)c1,O=S(=O)([O-])C(F)(F)F,2,,,,2000,False,CC[n+]1ccn(C)c1.O=S(=O)([O-])C(F)(F)F,No changes
KLxie,298.15,101.0,1361.4,Garcia-Miaja et al. (2008),Liquid,0.8784,1-ethyl-3-methylimidazolium trifluoromethanesulfonate,,,CC[n+]1ccn(C)c1.O=S(=O)([O-])C(F)(F)F,1-ethyl-3-methylimidazolium trifluoromethanesulfonate,AAyCVz,CCO,ethanol,AAIsrh,CC[n+]1ccn(C)c1,O=S(=O)([O-])C(F)(F)F,2,,,,2001,False,CC[n+]1ccn(C)c1.O=S(=O)([O-])C(F)(F)F,No changes
KLxie,303.15,101.0,1357.2,Garcia-Miaja et al. (2008),Liquid,0.8784,1-ethyl-3-methylimidazolium trifluoromethanesulfonate,,,CC[n+]1ccn(C)c1.O=S(=O)([O-])C(F)(F)F,1-ethyl-3-methylimidazolium trifluoromethanesulfonate,AAyCVz,CCO,ethanol,AAIsrh,CC[n+]1ccn(C)c1,O=S(=O)([O-])C(F)(F)F,2,,,,2002,False,CC[n+]1ccn(C)c1.O=S(=O)([O-])C(F)(F)F,No changes