setid,Temperature (K),Pressure (kPa),Density (kg/m3),reference,phases,Mole fraction,Mole fraction of compound name,Weight fraction,Weight fraction of compound name,IL_SMILES,IL_name,IL_ID,Solvent_SMILES,Solvent_name,Solvent_ID,IL_cation_SMILES,IL_anion_SMILES,IL_component_number,Mole fraction of solvent,IL_MW,Solvent_MW,Record_ID,Contains_Metal,Standardized_IL_SMILES,Changes
sCxPm,338.15,101.0,1461.23,Salinas et al. (2015),Liquid,0.907,1-ethyl-3-methylimidazolium bis((trifluoromethyl)sulfonyl)imide,,,CC[n+]1ccn(C)c1.O=S(=O)([N-]S(=O)(=O)C(F)(F)F)C(F)(F)F,1-ethyl-3-methylimidazolium bis((trifluoromethyl)sulfonyl)imide,ABXNZH,CCO,ethanol,AAIsrh,CC[n+]1ccn(C)c1,O=S(=O)([N-]S(=O)(=O)C(F)(F)F)C(F)(F)F,2,,,,463,False,CC[n+]1ccn(C)c1.O=S(=O)([N-]S(=O)(=O)C(F)(F)F)C(F)(F)F,No changes
sCxPm,338.15,101.0,1477.86,Salinas et al. (2015),Liquid,1.0,1-ethyl-3-methylimidazolium bis((trifluoromethyl)sulfonyl)imide,,,CC[n+]1ccn(C)c1.O=S(=O)([N-]S(=O)(=O)C(F)(F)F)C(F)(F)F,1-ethyl-3-methylimidazolium bis((trifluoromethyl)sulfonyl)imide,ABXNZH,CCO,ethanol,AAIsrh,CC[n+]1ccn(C)c1,O=S(=O)([N-]S(=O)(=O)C(F)(F)F)C(F)(F)F,2,,,,464,False,CC[n+]1ccn(C)c1.O=S(=O)([N-]S(=O)(=O)C(F)(F)F)C(F)(F)F,No changes
tDIIx,298.15,101.0,1062.63,Calvar et al. (2006),Liquid,0.8126,ethanol,,,CCCC[n+]1ccn(C)c1.[Cl-],1-butyl-3-methylimidazolium chloride,AAherF,CCO,ethanol,AAIsrh,CCCC[n+]1ccn(C)c1,[Cl-],2,0.1874,,,465,False,CCCC[n+]1ccn(C)c1.[Cl-],No changes
tDIIx,298.15,101.0,1053.69,Calvar et al. (2006),Liquid,0.7468,ethanol,,,CCCC[n+]1ccn(C)c1.[Cl-],1-butyl-3-methylimidazolium chloride,AAherF,CCO,ethanol,AAIsrh,CCCC[n+]1ccn(C)c1,[Cl-],2,0.2532,,,466,False,CCCC[n+]1ccn(C)c1.[Cl-],No changes
tDIIx,298.15,101.0,1014.24,Calvar et al. (2006),Liquid,0.5185,ethanol,,,CCCC[n+]1ccn(C)c1.[Cl-],1-butyl-3-methylimidazolium chloride,AAherF,CCO,ethanol,AAIsrh,CCCC[n+]1ccn(C)c1,[Cl-],2,0.4815,,,467,False,CCCC[n+]1ccn(C)c1.[Cl-],No changes
tDIIx,298.15,101.0,979.7,Calvar et al. (2006),Liquid,0.3791,ethanol,,,CCCC[n+]1ccn(C)c1.[Cl-],1-butyl-3-methylimidazolium chloride,AAherF,CCO,ethanol,AAIsrh,CCCC[n+]1ccn(C)c1,[Cl-],2,0.6209,,,468,False,CCCC[n+]1ccn(C)c1.[Cl-],No changes
tDIIx,298.15,101.0,946.87,Calvar et al. (2006),Liquid,0.2783,ethanol,,,CCCC[n+]1ccn(C)c1.[Cl-],1-butyl-3-methylimidazolium chloride,AAherF,CCO,ethanol,AAIsrh,CCCC[n+]1ccn(C)c1,[Cl-],2,0.7217,,,469,False,CCCC[n+]1ccn(C)c1.[Cl-],No changes
tDIIx,298.15,101.0,891.65,Calvar et al. (2006),Liquid,0.1514999999999999,ethanol,,,CCCC[n+]1ccn(C)c1.[Cl-],1-butyl-3-methylimidazolium chloride,AAherF,CCO,ethanol,AAIsrh,CCCC[n+]1ccn(C)c1,[Cl-],2,0.8485,,,470,False,CCCC[n+]1ccn(C)c1.[Cl-],No changes
tDIIx,298.15,101.0,863.4,Calvar et al. (2006),Liquid,0.1018,ethanol,,,CCCC[n+]1ccn(C)c1.[Cl-],1-butyl-3-methylimidazolium chloride,AAherF,CCO,ethanol,AAIsrh,CCCC[n+]1ccn(C)c1,[Cl-],2,0.8982,,,471,False,CCCC[n+]1ccn(C)c1.[Cl-],No changes
tDIIx,298.15,101.0,837.5,Calvar et al. (2006),Liquid,0.0626999999999999,ethanol,,,CCCC[n+]1ccn(C)c1.[Cl-],1-butyl-3-methylimidazolium chloride,AAherF,CCO,ethanol,AAIsrh,CCCC[n+]1ccn(C)c1,[Cl-],2,0.9373,,,472,False,CCCC[n+]1ccn(C)c1.[Cl-],No changes
tDIIx,298.15,101.0,785.45,Calvar et al. (2006),Liquid,0.0,ethanol,,,CCCC[n+]1ccn(C)c1.[Cl-],1-butyl-3-methylimidazolium chloride,AAherF,CCO,ethanol,AAIsrh,CCCC[n+]1ccn(C)c1,[Cl-],2,1.0,,,473,False,CCCC[n+]1ccn(C)c1.[Cl-],No changes
fsBnc,298.15,101.0,884.7,Domanska et al. (2006b),Liquid,0.0713,1-butyl-3-methylimidazolium methyl sulfate,,,CCCC[n+]1ccn(C)c1.COS(=O)(=O)[O-],1-butyl-3-methylimidazolium methyl sulfate,AAwHNg,CCO,ethanol,AAIsrh,CCCC[n+]1ccn(C)c1,COS(=O)(=O)[O-],2,,,,474,False,CCCC[n+]1ccn(C)c1.COS(=O)(=O)[O-],No changes
fsBnc,298.15,101.0,935.1,Domanska et al. (2006b),Liquid,0.1221,1-butyl-3-methylimidazolium methyl sulfate,,,CCCC[n+]1ccn(C)c1.COS(=O)(=O)[O-],1-butyl-3-methylimidazolium methyl sulfate,AAwHNg,CCO,ethanol,AAIsrh,CCCC[n+]1ccn(C)c1,COS(=O)(=O)[O-],2,,,,475,False,CCCC[n+]1ccn(C)c1.COS(=O)(=O)[O-],No changes
fsBnc,298.15,101.0,1016.8,Domanska et al. (2006b),Liquid,0.2349,1-butyl-3-methylimidazolium methyl sulfate,,,CCCC[n+]1ccn(C)c1.COS(=O)(=O)[O-],1-butyl-3-methylimidazolium methyl sulfate,AAwHNg,CCO,ethanol,AAIsrh,CCCC[n+]1ccn(C)c1,COS(=O)(=O)[O-],2,,,,476,False,CCCC[n+]1ccn(C)c1.COS(=O)(=O)[O-],No changes
fsBnc,298.15,101.0,1071.6,Domanska et al. (2006b),Liquid,0.3448,1-butyl-3-methylimidazolium methyl sulfate,,,CCCC[n+]1ccn(C)c1.COS(=O)(=O)[O-],1-butyl-3-methylimidazolium methyl sulfate,AAwHNg,CCO,ethanol,AAIsrh,CCCC[n+]1ccn(C)c1,COS(=O)(=O)[O-],2,,,,477,False,CCCC[n+]1ccn(C)c1.COS(=O)(=O)[O-],No changes
fsBnc,298.15,101.0,1112.9,Domanska et al. (2006b),Liquid,0.4588,1-butyl-3-methylimidazolium methyl sulfate,,,CCCC[n+]1ccn(C)c1.COS(=O)(=O)[O-],1-butyl-3-methylimidazolium methyl sulfate,AAwHNg,CCO,ethanol,AAIsrh,CCCC[n+]1ccn(C)c1,COS(=O)(=O)[O-],2,,,,478,False,CCCC[n+]1ccn(C)c1.COS(=O)(=O)[O-],No changes
fsBnc,298.15,101.0,1141.8,Domanska et al. (2006b),Liquid,0.5629,1-butyl-3-methylimidazolium methyl sulfate,,,CCCC[n+]1ccn(C)c1.COS(=O)(=O)[O-],1-butyl-3-methylimidazolium methyl sulfate,AAwHNg,CCO,ethanol,AAIsrh,CCCC[n+]1ccn(C)c1,COS(=O)(=O)[O-],2,,,,479,False,CCCC[n+]1ccn(C)c1.COS(=O)(=O)[O-],No changes
fsBnc,298.15,101.0,1158.8,Domanska et al. (2006b),Liquid,0.6403,1-butyl-3-methylimidazolium methyl sulfate,,,CCCC[n+]1ccn(C)c1.COS(=O)(=O)[O-],1-butyl-3-methylimidazolium methyl sulfate,AAwHNg,CCO,ethanol,AAIsrh,CCCC[n+]1ccn(C)c1,COS(=O)(=O)[O-],2,,,,480,False,CCCC[n+]1ccn(C)c1.COS(=O)(=O)[O-],No changes
fsBnc,298.15,101.0,1177.2,Domanska et al. (2006b),Liquid,0.7372,1-butyl-3-methylimidazolium methyl sulfate,,,CCCC[n+]1ccn(C)c1.COS(=O)(=O)[O-],1-butyl-3-methylimidazolium methyl sulfate,AAwHNg,CCO,ethanol,AAIsrh,CCCC[n+]1ccn(C)c1,COS(=O)(=O)[O-],2,,,,481,False,CCCC[n+]1ccn(C)c1.COS(=O)(=O)[O-],No changes
fsBnc,298.15,101.0,1193.5,Domanska et al. (2006b),Liquid,0.8406,1-butyl-3-methylimidazolium methyl sulfate,,,CCCC[n+]1ccn(C)c1.COS(=O)(=O)[O-],1-butyl-3-methylimidazolium methyl sulfate,AAwHNg,CCO,ethanol,AAIsrh,CCCC[n+]1ccn(C)c1,COS(=O)(=O)[O-],2,,,,482,False,CCCC[n+]1ccn(C)c1.COS(=O)(=O)[O-],No changes
fsBnc,298.15,101.0,1209.4,Domanska et al. (2006b),Liquid,0.9614,1-butyl-3-methylimidazolium methyl sulfate,,,CCCC[n+]1ccn(C)c1.COS(=O)(=O)[O-],1-butyl-3-methylimidazolium methyl sulfate,AAwHNg,CCO,ethanol,AAIsrh,CCCC[n+]1ccn(C)c1,COS(=O)(=O)[O-],2,,,,483,False,CCCC[n+]1ccn(C)c1.COS(=O)(=O)[O-],No changes
yzkZh,298.15,101.0,925.0,Khan et al. (2015),Liquid,0.2,1-butyl-3-methylimidazolium thiocyanate,,,CCCC[n+]1ccn(C)c1.N#C[S-],1-butyl-3-methylimidazolium thiocyanate,AAlxZE,CCO,ethanol,AAIsrh,CCCC[n+]1ccn(C)c1,N#C[S-],2,,,,484,False,CCCC[n+]1ccn(C)c1.N#C[S-],No changes
yzkZh,298.15,101.0,991.0,Khan et al. (2015),Liquid,0.4,1-butyl-3-methylimidazolium thiocyanate,,,CCCC[n+]1ccn(C)c1.N#C[S-],1-butyl-3-methylimidazolium thiocyanate,AAlxZE,CCO,ethanol,AAIsrh,CCCC[n+]1ccn(C)c1,N#C[S-],2,,,,485,False,CCCC[n+]1ccn(C)c1.N#C[S-],No changes
yzkZh,298.15,101.0,1026.0,Khan et al. (2015),Liquid,0.59,1-butyl-3-methylimidazolium thiocyanate,,,CCCC[n+]1ccn(C)c1.N#C[S-],1-butyl-3-methylimidazolium thiocyanate,AAlxZE,CCO,ethanol,AAIsrh,CCCC[n+]1ccn(C)c1,N#C[S-],2,,,,486,False,CCCC[n+]1ccn(C)c1.N#C[S-],No changes
yzkZh,298.15,101.0,1053.0,Khan et al. (2015),Liquid,0.8,1-butyl-3-methylimidazolium thiocyanate,,,CCCC[n+]1ccn(C)c1.N#C[S-],1-butyl-3-methylimidazolium thiocyanate,AAlxZE,CCO,ethanol,AAIsrh,CCCC[n+]1ccn(C)c1,N#C[S-],2,,,,487,False,CCCC[n+]1ccn(C)c1.N#C[S-],No changes
YLObv,293.15,100.0,790.0,Krolikowska et al. (2023),Liquid,0.0,"1,3-dimethylimidazolium dimethyl phosphate",,,Cn1cc[n+](C)c1.COP(=O)([O-])OC,"1,3-dimethylimidazolium dimethyl phosphate",AAqlaB,CCO,ethanol,AAIsrh,Cn1cc[n+](C)c1,COP(=O)([O-])OC,2,,,,488,False,Cn1cc[n+](C)c1.COP(=O)([O-])OC,No changes
YLObv,293.15,100.0,821.0,Krolikowska et al. (2023),Liquid,0.0201,"1,3-dimethylimidazolium dimethyl phosphate",,,Cn1cc[n+](C)c1.COP(=O)([O-])OC,"1,3-dimethylimidazolium dimethyl phosphate",AAqlaB,CCO,ethanol,AAIsrh,Cn1cc[n+](C)c1,COP(=O)([O-])OC,2,,,,489,False,Cn1cc[n+](C)c1.COP(=O)([O-])OC,No changes
YLObv,293.15,100.0,848.0,Krolikowska et al. (2023),Liquid,0.0402,"1,3-dimethylimidazolium dimethyl phosphate",,,Cn1cc[n+](C)c1.COP(=O)([O-])OC,"1,3-dimethylimidazolium dimethyl phosphate",AAqlaB,CCO,ethanol,AAIsrh,Cn1cc[n+](C)c1,COP(=O)([O-])OC,2,,,,490,False,Cn1cc[n+](C)c1.COP(=O)([O-])OC,No changes
YLObv,293.15,100.0,896.0,Krolikowska et al. (2023),Liquid,0.0803,"1,3-dimethylimidazolium dimethyl phosphate",,,Cn1cc[n+](C)c1.COP(=O)([O-])OC,"1,3-dimethylimidazolium dimethyl phosphate",AAqlaB,CCO,ethanol,AAIsrh,Cn1cc[n+](C)c1,COP(=O)([O-])OC,2,,,,491,False,Cn1cc[n+](C)c1.COP(=O)([O-])OC,No changes
YLObv,293.15,100.0,918.0,Krolikowska et al. (2023),Liquid,0.1005,"1,3-dimethylimidazolium dimethyl phosphate",,,Cn1cc[n+](C)c1.COP(=O)([O-])OC,"1,3-dimethylimidazolium dimethyl phosphate",AAqlaB,CCO,ethanol,AAIsrh,Cn1cc[n+](C)c1,COP(=O)([O-])OC,2,,,,492,False,Cn1cc[n+](C)c1.COP(=O)([O-])OC,No changes
YLObv,293.15,100.0,936.0,Krolikowska et al. (2023),Liquid,0.1193,"1,3-dimethylimidazolium dimethyl phosphate",,,Cn1cc[n+](C)c1.COP(=O)([O-])OC,"1,3-dimethylimidazolium dimethyl phosphate",AAqlaB,CCO,ethanol,AAIsrh,Cn1cc[n+](C)c1,COP(=O)([O-])OC,2,,,,493,False,Cn1cc[n+](C)c1.COP(=O)([O-])OC,No changes
YLObv,293.15,100.0,972.0,Krolikowska et al. (2023),Liquid,0.1597,"1,3-dimethylimidazolium dimethyl phosphate",,,Cn1cc[n+](C)c1.COP(=O)([O-])OC,"1,3-dimethylimidazolium dimethyl phosphate",AAqlaB,CCO,ethanol,AAIsrh,Cn1cc[n+](C)c1,COP(=O)([O-])OC,2,,,,494,False,Cn1cc[n+](C)c1.COP(=O)([O-])OC,No changes
YLObv,293.15,100.0,1004.0,Krolikowska et al. (2023),Liquid,0.2006,"1,3-dimethylimidazolium dimethyl phosphate",,,Cn1cc[n+](C)c1.COP(=O)([O-])OC,"1,3-dimethylimidazolium dimethyl phosphate",AAqlaB,CCO,ethanol,AAIsrh,Cn1cc[n+](C)c1,COP(=O)([O-])OC,2,,,,495,False,Cn1cc[n+](C)c1.COP(=O)([O-])OC,No changes
YLObv,293.15,100.0,1066.0,Krolikowska et al. (2023),Liquid,0.3005,"1,3-dimethylimidazolium dimethyl phosphate",,,Cn1cc[n+](C)c1.COP(=O)([O-])OC,"1,3-dimethylimidazolium dimethyl phosphate",AAqlaB,CCO,ethanol,AAIsrh,Cn1cc[n+](C)c1,COP(=O)([O-])OC,2,,,,496,False,Cn1cc[n+](C)c1.COP(=O)([O-])OC,No changes
YLObv,293.15,100.0,1116.0,Krolikowska et al. (2023),Liquid,0.4031,"1,3-dimethylimidazolium dimethyl phosphate",,,Cn1cc[n+](C)c1.COP(=O)([O-])OC,"1,3-dimethylimidazolium dimethyl phosphate",AAqlaB,CCO,ethanol,AAIsrh,Cn1cc[n+](C)c1,COP(=O)([O-])OC,2,,,,497,False,Cn1cc[n+](C)c1.COP(=O)([O-])OC,No changes
YLObv,293.15,100.0,1151.0,Krolikowska et al. (2023),Liquid,0.4996,"1,3-dimethylimidazolium dimethyl phosphate",,,Cn1cc[n+](C)c1.COP(=O)([O-])OC,"1,3-dimethylimidazolium dimethyl phosphate",AAqlaB,CCO,ethanol,AAIsrh,Cn1cc[n+](C)c1,COP(=O)([O-])OC,2,,,,498,False,Cn1cc[n+](C)c1.COP(=O)([O-])OC,No changes
YLObv,293.15,100.0,1182.0,Krolikowska et al. (2023),Liquid,0.6043,"1,3-dimethylimidazolium dimethyl phosphate",,,Cn1cc[n+](C)c1.COP(=O)([O-])OC,"1,3-dimethylimidazolium dimethyl phosphate",AAqlaB,CCO,ethanol,AAIsrh,Cn1cc[n+](C)c1,COP(=O)([O-])OC,2,,,,499,False,Cn1cc[n+](C)c1.COP(=O)([O-])OC,No changes
YLObv,293.15,100.0,1207.0,Krolikowska et al. (2023),Liquid,0.7009,"1,3-dimethylimidazolium dimethyl phosphate",,,Cn1cc[n+](C)c1.COP(=O)([O-])OC,"1,3-dimethylimidazolium dimethyl phosphate",AAqlaB,CCO,ethanol,AAIsrh,Cn1cc[n+](C)c1,COP(=O)([O-])OC,2,,,,500,False,Cn1cc[n+](C)c1.COP(=O)([O-])OC,No changes
YLObv,293.15,100.0,1227.0,Krolikowska et al. (2023),Liquid,0.797,"1,3-dimethylimidazolium dimethyl phosphate",,,Cn1cc[n+](C)c1.COP(=O)([O-])OC,"1,3-dimethylimidazolium dimethyl phosphate",AAqlaB,CCO,ethanol,AAIsrh,Cn1cc[n+](C)c1,COP(=O)([O-])OC,2,,,,501,False,Cn1cc[n+](C)c1.COP(=O)([O-])OC,No changes
YLObv,293.15,100.0,1244.0,Krolikowska et al. (2023),Liquid,0.8995,"1,3-dimethylimidazolium dimethyl phosphate",,,Cn1cc[n+](C)c1.COP(=O)([O-])OC,"1,3-dimethylimidazolium dimethyl phosphate",AAqlaB,CCO,ethanol,AAIsrh,Cn1cc[n+](C)c1,COP(=O)([O-])OC,2,,,,502,False,Cn1cc[n+](C)c1.COP(=O)([O-])OC,No changes
YLObv,293.15,100.0,1260.0,Krolikowska et al. (2023),Liquid,1.0,"1,3-dimethylimidazolium dimethyl phosphate",,,Cn1cc[n+](C)c1.COP(=O)([O-])OC,"1,3-dimethylimidazolium dimethyl phosphate",AAqlaB,CCO,ethanol,AAIsrh,Cn1cc[n+](C)c1,COP(=O)([O-])OC,2,,,,503,False,Cn1cc[n+](C)c1.COP(=O)([O-])OC,No changes
YLObv,298.15,100.0,785.0,Krolikowska et al. (2023),Liquid,0.0,"1,3-dimethylimidazolium dimethyl phosphate",,,Cn1cc[n+](C)c1.COP(=O)([O-])OC,"1,3-dimethylimidazolium dimethyl phosphate",AAqlaB,CCO,ethanol,AAIsrh,Cn1cc[n+](C)c1,COP(=O)([O-])OC,2,,,,504,False,Cn1cc[n+](C)c1.COP(=O)([O-])OC,No changes
YLObv,298.15,100.0,816.0,Krolikowska et al. (2023),Liquid,0.0201,"1,3-dimethylimidazolium dimethyl phosphate",,,Cn1cc[n+](C)c1.COP(=O)([O-])OC,"1,3-dimethylimidazolium dimethyl phosphate",AAqlaB,CCO,ethanol,AAIsrh,Cn1cc[n+](C)c1,COP(=O)([O-])OC,2,,,,505,False,Cn1cc[n+](C)c1.COP(=O)([O-])OC,No changes
YLObv,298.15,100.0,844.0,Krolikowska et al. (2023),Liquid,0.0402,"1,3-dimethylimidazolium dimethyl phosphate",,,Cn1cc[n+](C)c1.COP(=O)([O-])OC,"1,3-dimethylimidazolium dimethyl phosphate",AAqlaB,CCO,ethanol,AAIsrh,Cn1cc[n+](C)c1,COP(=O)([O-])OC,2,,,,506,False,Cn1cc[n+](C)c1.COP(=O)([O-])OC,No changes
YLObv,298.15,100.0,892.0,Krolikowska et al. (2023),Liquid,0.0803,"1,3-dimethylimidazolium dimethyl phosphate",,,Cn1cc[n+](C)c1.COP(=O)([O-])OC,"1,3-dimethylimidazolium dimethyl phosphate",AAqlaB,CCO,ethanol,AAIsrh,Cn1cc[n+](C)c1,COP(=O)([O-])OC,2,,,,507,False,Cn1cc[n+](C)c1.COP(=O)([O-])OC,No changes
YLObv,298.15,100.0,914.0,Krolikowska et al. (2023),Liquid,0.1005,"1,3-dimethylimidazolium dimethyl phosphate",,,Cn1cc[n+](C)c1.COP(=O)([O-])OC,"1,3-dimethylimidazolium dimethyl phosphate",AAqlaB,CCO,ethanol,AAIsrh,Cn1cc[n+](C)c1,COP(=O)([O-])OC,2,,,,508,False,Cn1cc[n+](C)c1.COP(=O)([O-])OC,No changes
YLObv,298.15,100.0,932.0,Krolikowska et al. (2023),Liquid,0.1193,"1,3-dimethylimidazolium dimethyl phosphate",,,Cn1cc[n+](C)c1.COP(=O)([O-])OC,"1,3-dimethylimidazolium dimethyl phosphate",AAqlaB,CCO,ethanol,AAIsrh,Cn1cc[n+](C)c1,COP(=O)([O-])OC,2,,,,509,False,Cn1cc[n+](C)c1.COP(=O)([O-])OC,No changes
YLObv,298.15,100.0,968.0,Krolikowska et al. (2023),Liquid,0.1597,"1,3-dimethylimidazolium dimethyl phosphate",,,Cn1cc[n+](C)c1.COP(=O)([O-])OC,"1,3-dimethylimidazolium dimethyl phosphate",AAqlaB,CCO,ethanol,AAIsrh,Cn1cc[n+](C)c1,COP(=O)([O-])OC,2,,,,510,False,Cn1cc[n+](C)c1.COP(=O)([O-])OC,No changes
YLObv,298.15,100.0,1000.0,Krolikowska et al. (2023),Liquid,0.2006,"1,3-dimethylimidazolium dimethyl phosphate",,,Cn1cc[n+](C)c1.COP(=O)([O-])OC,"1,3-dimethylimidazolium dimethyl phosphate",AAqlaB,CCO,ethanol,AAIsrh,Cn1cc[n+](C)c1,COP(=O)([O-])OC,2,,,,511,False,Cn1cc[n+](C)c1.COP(=O)([O-])OC,No changes
YLObv,298.15,100.0,1063.0,Krolikowska et al. (2023),Liquid,0.3005,"1,3-dimethylimidazolium dimethyl phosphate",,,Cn1cc[n+](C)c1.COP(=O)([O-])OC,"1,3-dimethylimidazolium dimethyl phosphate",AAqlaB,CCO,ethanol,AAIsrh,Cn1cc[n+](C)c1,COP(=O)([O-])OC,2,,,,512,False,Cn1cc[n+](C)c1.COP(=O)([O-])OC,No changes
YLObv,298.15,100.0,1112.0,Krolikowska et al. (2023),Liquid,0.4031,"1,3-dimethylimidazolium dimethyl phosphate",,,Cn1cc[n+](C)c1.COP(=O)([O-])OC,"1,3-dimethylimidazolium dimethyl phosphate",AAqlaB,CCO,ethanol,AAIsrh,Cn1cc[n+](C)c1,COP(=O)([O-])OC,2,,,,513,False,Cn1cc[n+](C)c1.COP(=O)([O-])OC,No changes
YLObv,298.15,100.0,1147.0,Krolikowska et al. (2023),Liquid,0.4996,"1,3-dimethylimidazolium dimethyl phosphate",,,Cn1cc[n+](C)c1.COP(=O)([O-])OC,"1,3-dimethylimidazolium dimethyl phosphate",AAqlaB,CCO,ethanol,AAIsrh,Cn1cc[n+](C)c1,COP(=O)([O-])OC,2,,,,514,False,Cn1cc[n+](C)c1.COP(=O)([O-])OC,No changes
YLObv,298.15,100.0,1179.0,Krolikowska et al. (2023),Liquid,0.6043,"1,3-dimethylimidazolium dimethyl phosphate",,,Cn1cc[n+](C)c1.COP(=O)([O-])OC,"1,3-dimethylimidazolium dimethyl phosphate",AAqlaB,CCO,ethanol,AAIsrh,Cn1cc[n+](C)c1,COP(=O)([O-])OC,2,,,,515,False,Cn1cc[n+](C)c1.COP(=O)([O-])OC,No changes
YLObv,298.15,100.0,1203.0,Krolikowska et al. (2023),Liquid,0.7009,"1,3-dimethylimidazolium dimethyl phosphate",,,Cn1cc[n+](C)c1.COP(=O)([O-])OC,"1,3-dimethylimidazolium dimethyl phosphate",AAqlaB,CCO,ethanol,AAIsrh,Cn1cc[n+](C)c1,COP(=O)([O-])OC,2,,,,516,False,Cn1cc[n+](C)c1.COP(=O)([O-])OC,No changes
YLObv,298.15,100.0,1223.0,Krolikowska et al. (2023),Liquid,0.797,"1,3-dimethylimidazolium dimethyl phosphate",,,Cn1cc[n+](C)c1.COP(=O)([O-])OC,"1,3-dimethylimidazolium dimethyl phosphate",AAqlaB,CCO,ethanol,AAIsrh,Cn1cc[n+](C)c1,COP(=O)([O-])OC,2,,,,517,False,Cn1cc[n+](C)c1.COP(=O)([O-])OC,No changes
YLObv,298.15,100.0,1241.0,Krolikowska et al. (2023),Liquid,0.8995,"1,3-dimethylimidazolium dimethyl phosphate",,,Cn1cc[n+](C)c1.COP(=O)([O-])OC,"1,3-dimethylimidazolium dimethyl phosphate",AAqlaB,CCO,ethanol,AAIsrh,Cn1cc[n+](C)c1,COP(=O)([O-])OC,2,,,,518,False,Cn1cc[n+](C)c1.COP(=O)([O-])OC,No changes
YLObv,298.15,100.0,1257.0,Krolikowska et al. (2023),Liquid,1.0,"1,3-dimethylimidazolium dimethyl phosphate",,,Cn1cc[n+](C)c1.COP(=O)([O-])OC,"1,3-dimethylimidazolium dimethyl phosphate",AAqlaB,CCO,ethanol,AAIsrh,Cn1cc[n+](C)c1,COP(=O)([O-])OC,2,,,,519,False,Cn1cc[n+](C)c1.COP(=O)([O-])OC,No changes
YLObv,303.15,100.0,781.0,Krolikowska et al. (2023),Liquid,0.0,"1,3-dimethylimidazolium dimethyl phosphate",,,Cn1cc[n+](C)c1.COP(=O)([O-])OC,"1,3-dimethylimidazolium dimethyl phosphate",AAqlaB,CCO,ethanol,AAIsrh,Cn1cc[n+](C)c1,COP(=O)([O-])OC,2,,,,520,False,Cn1cc[n+](C)c1.COP(=O)([O-])OC,No changes
YLObv,303.15,100.0,812.0,Krolikowska et al. (2023),Liquid,0.0201,"1,3-dimethylimidazolium dimethyl phosphate",,,Cn1cc[n+](C)c1.COP(=O)([O-])OC,"1,3-dimethylimidazolium dimethyl phosphate",AAqlaB,CCO,ethanol,AAIsrh,Cn1cc[n+](C)c1,COP(=O)([O-])OC,2,,,,521,False,Cn1cc[n+](C)c1.COP(=O)([O-])OC,No changes
YLObv,303.15,100.0,840.0,Krolikowska et al. (2023),Liquid,0.0402,"1,3-dimethylimidazolium dimethyl phosphate",,,Cn1cc[n+](C)c1.COP(=O)([O-])OC,"1,3-dimethylimidazolium dimethyl phosphate",AAqlaB,CCO,ethanol,AAIsrh,Cn1cc[n+](C)c1,COP(=O)([O-])OC,2,,,,522,False,Cn1cc[n+](C)c1.COP(=O)([O-])OC,No changes
YLObv,303.15,100.0,888.0,Krolikowska et al. (2023),Liquid,0.0803,"1,3-dimethylimidazolium dimethyl phosphate",,,Cn1cc[n+](C)c1.COP(=O)([O-])OC,"1,3-dimethylimidazolium dimethyl phosphate",AAqlaB,CCO,ethanol,AAIsrh,Cn1cc[n+](C)c1,COP(=O)([O-])OC,2,,,,523,False,Cn1cc[n+](C)c1.COP(=O)([O-])OC,No changes
YLObv,303.15,100.0,910.0,Krolikowska et al. (2023),Liquid,0.1005,"1,3-dimethylimidazolium dimethyl phosphate",,,Cn1cc[n+](C)c1.COP(=O)([O-])OC,"1,3-dimethylimidazolium dimethyl phosphate",AAqlaB,CCO,ethanol,AAIsrh,Cn1cc[n+](C)c1,COP(=O)([O-])OC,2,,,,524,False,Cn1cc[n+](C)c1.COP(=O)([O-])OC,No changes
YLObv,303.15,100.0,928.0,Krolikowska et al. (2023),Liquid,0.1193,"1,3-dimethylimidazolium dimethyl phosphate",,,Cn1cc[n+](C)c1.COP(=O)([O-])OC,"1,3-dimethylimidazolium dimethyl phosphate",AAqlaB,CCO,ethanol,AAIsrh,Cn1cc[n+](C)c1,COP(=O)([O-])OC,2,,,,525,False,Cn1cc[n+](C)c1.COP(=O)([O-])OC,No changes
YLObv,303.15,100.0,964.0,Krolikowska et al. (2023),Liquid,0.1597,"1,3-dimethylimidazolium dimethyl phosphate",,,Cn1cc[n+](C)c1.COP(=O)([O-])OC,"1,3-dimethylimidazolium dimethyl phosphate",AAqlaB,CCO,ethanol,AAIsrh,Cn1cc[n+](C)c1,COP(=O)([O-])OC,2,,,,526,False,Cn1cc[n+](C)c1.COP(=O)([O-])OC,No changes
YLObv,303.15,100.0,996.0,Krolikowska et al. (2023),Liquid,0.2006,"1,3-dimethylimidazolium dimethyl phosphate",,,Cn1cc[n+](C)c1.COP(=O)([O-])OC,"1,3-dimethylimidazolium dimethyl phosphate",AAqlaB,CCO,ethanol,AAIsrh,Cn1cc[n+](C)c1,COP(=O)([O-])OC,2,,,,527,False,Cn1cc[n+](C)c1.COP(=O)([O-])OC,No changes
YLObv,303.15,100.0,1059.0,Krolikowska et al. (2023),Liquid,0.3005,"1,3-dimethylimidazolium dimethyl phosphate",,,Cn1cc[n+](C)c1.COP(=O)([O-])OC,"1,3-dimethylimidazolium dimethyl phosphate",AAqlaB,CCO,ethanol,AAIsrh,Cn1cc[n+](C)c1,COP(=O)([O-])OC,2,,,,528,False,Cn1cc[n+](C)c1.COP(=O)([O-])OC,No changes