setid,Temperature (K),Pressure (kPa),Density (kg/m3),reference,phases,Mole fraction,Mole fraction of compound name,Weight fraction,Weight fraction of compound name,IL_SMILES,IL_name,IL_ID,Solvent_SMILES,Solvent_name,Solvent_ID,IL_cation_SMILES,IL_anion_SMILES,IL_component_number,Mole fraction of solvent,IL_MW,Solvent_MW,Record_ID,Contains_Metal,Standardized_IL_SMILES,Changes
miYMW,318.15,100.0,1077.2,Fatima et al. (2021),Liquid,0.8929,1-ethyl-3-methylimidazolium dicyanamide,,,CC[n+]1ccn(C)c1.N#C[N-]C#N,1-ethyl-3-methylimidazolium dicyanamide,AAiEIE,CCO,ethanol,AAIsrh,CC[n+]1ccn(C)c1,N#C[N-]C#N,2,,,,1894,False,CC[n+]1ccn(C)c1.N#C[N-]C#N,No changes
miYMW,318.15,100.0,1087.6,Fatima et al. (2021),Liquid,1.0,1-ethyl-3-methylimidazolium dicyanamide,,,CC[n+]1ccn(C)c1.N#C[N-]C#N,1-ethyl-3-methylimidazolium dicyanamide,AAiEIE,CCO,ethanol,AAIsrh,CC[n+]1ccn(C)c1,N#C[N-]C#N,2,,,,1895,False,CC[n+]1ccn(C)c1.N#C[N-]C#N,No changes
miYMW,323.15,100.0,764.9,Fatima et al. (2021),Liquid,0.0,1-ethyl-3-methylimidazolium dicyanamide,,,CC[n+]1ccn(C)c1.N#C[N-]C#N,1-ethyl-3-methylimidazolium dicyanamide,AAiEIE,CCO,ethanol,AAIsrh,CC[n+]1ccn(C)c1,N#C[N-]C#N,2,,,,1896,False,CC[n+]1ccn(C)c1.N#C[N-]C#N,No changes
miYMW,323.15,100.0,854.7,Fatima et al. (2021),Liquid,0.0997,1-ethyl-3-methylimidazolium dicyanamide,,,CC[n+]1ccn(C)c1.N#C[N-]C#N,1-ethyl-3-methylimidazolium dicyanamide,AAiEIE,CCO,ethanol,AAIsrh,CC[n+]1ccn(C)c1,N#C[N-]C#N,2,,,,1897,False,CC[n+]1ccn(C)c1.N#C[N-]C#N,No changes
miYMW,323.15,100.0,912.7,Fatima et al. (2021),Liquid,0.196,1-ethyl-3-methylimidazolium dicyanamide,,,CC[n+]1ccn(C)c1.N#C[N-]C#N,1-ethyl-3-methylimidazolium dicyanamide,AAiEIE,CCO,ethanol,AAIsrh,CC[n+]1ccn(C)c1,N#C[N-]C#N,2,,,,1898,False,CC[n+]1ccn(C)c1.N#C[N-]C#N,No changes
miYMW,323.15,100.0,956.7,Fatima et al. (2021),Liquid,0.3001,1-ethyl-3-methylimidazolium dicyanamide,,,CC[n+]1ccn(C)c1.N#C[N-]C#N,1-ethyl-3-methylimidazolium dicyanamide,AAiEIE,CCO,ethanol,AAIsrh,CC[n+]1ccn(C)c1,N#C[N-]C#N,2,,,,1899,False,CC[n+]1ccn(C)c1.N#C[N-]C#N,No changes
miYMW,323.15,100.0,986.1,Fatima et al. (2021),Liquid,0.3945,1-ethyl-3-methylimidazolium dicyanamide,,,CC[n+]1ccn(C)c1.N#C[N-]C#N,1-ethyl-3-methylimidazolium dicyanamide,AAiEIE,CCO,ethanol,AAIsrh,CC[n+]1ccn(C)c1,N#C[N-]C#N,2,,,,1900,False,CC[n+]1ccn(C)c1.N#C[N-]C#N,No changes
miYMW,323.15,100.0,1011.5,Fatima et al. (2021),Liquid,0.4997,1-ethyl-3-methylimidazolium dicyanamide,,,CC[n+]1ccn(C)c1.N#C[N-]C#N,1-ethyl-3-methylimidazolium dicyanamide,AAiEIE,CCO,ethanol,AAIsrh,CC[n+]1ccn(C)c1,N#C[N-]C#N,2,,,,1901,False,CC[n+]1ccn(C)c1.N#C[N-]C#N,No changes
miYMW,323.15,100.0,1031.2,Fatima et al. (2021),Liquid,0.5993,1-ethyl-3-methylimidazolium dicyanamide,,,CC[n+]1ccn(C)c1.N#C[N-]C#N,1-ethyl-3-methylimidazolium dicyanamide,AAiEIE,CCO,ethanol,AAIsrh,CC[n+]1ccn(C)c1,N#C[N-]C#N,2,,,,1902,False,CC[n+]1ccn(C)c1.N#C[N-]C#N,No changes
miYMW,323.15,100.0,1048.1,Fatima et al. (2021),Liquid,0.7013,1-ethyl-3-methylimidazolium dicyanamide,,,CC[n+]1ccn(C)c1.N#C[N-]C#N,1-ethyl-3-methylimidazolium dicyanamide,AAiEIE,CCO,ethanol,AAIsrh,CC[n+]1ccn(C)c1,N#C[N-]C#N,2,,,,1903,False,CC[n+]1ccn(C)c1.N#C[N-]C#N,No changes
miYMW,323.15,100.0,1062.7,Fatima et al. (2021),Liquid,0.8014,1-ethyl-3-methylimidazolium dicyanamide,,,CC[n+]1ccn(C)c1.N#C[N-]C#N,1-ethyl-3-methylimidazolium dicyanamide,AAiEIE,CCO,ethanol,AAIsrh,CC[n+]1ccn(C)c1,N#C[N-]C#N,2,,,,1904,False,CC[n+]1ccn(C)c1.N#C[N-]C#N,No changes
miYMW,323.15,100.0,1074.0,Fatima et al. (2021),Liquid,0.8929,1-ethyl-3-methylimidazolium dicyanamide,,,CC[n+]1ccn(C)c1.N#C[N-]C#N,1-ethyl-3-methylimidazolium dicyanamide,AAiEIE,CCO,ethanol,AAIsrh,CC[n+]1ccn(C)c1,N#C[N-]C#N,2,,,,1905,False,CC[n+]1ccn(C)c1.N#C[N-]C#N,No changes
miYMW,323.15,100.0,1084.3,Fatima et al. (2021),Liquid,1.0,1-ethyl-3-methylimidazolium dicyanamide,,,CC[n+]1ccn(C)c1.N#C[N-]C#N,1-ethyl-3-methylimidazolium dicyanamide,AAiEIE,CCO,ethanol,AAIsrh,CC[n+]1ccn(C)c1,N#C[N-]C#N,2,,,,1906,False,CC[n+]1ccn(C)c1.N#C[N-]C#N,No changes
aDiZf,298.15,100.0,785.4,Hauk et al. (2023),Liquid,0.0,1-ethyl-3-methylimidazolium bis((trifluoromethyl)sulfonyl)imide,,,CC[n+]1ccn(C)c1.O=S(=O)([N-]S(=O)(=O)C(F)(F)F)C(F)(F)F,1-ethyl-3-methylimidazolium bis((trifluoromethyl)sulfonyl)imide,ABXNZH,CCO,ethanol,AAIsrh,CC[n+]1ccn(C)c1,O=S(=O)([N-]S(=O)(=O)C(F)(F)F)C(F)(F)F,2,,,,1907,False,CC[n+]1ccn(C)c1.O=S(=O)([N-]S(=O)(=O)C(F)(F)F)C(F)(F)F,No changes
aDiZf,298.15,100.0,927.0,Hauk et al. (2023),Liquid,0.0502,1-ethyl-3-methylimidazolium bis((trifluoromethyl)sulfonyl)imide,,,CC[n+]1ccn(C)c1.O=S(=O)([N-]S(=O)(=O)C(F)(F)F)C(F)(F)F,1-ethyl-3-methylimidazolium bis((trifluoromethyl)sulfonyl)imide,ABXNZH,CCO,ethanol,AAIsrh,CC[n+]1ccn(C)c1,O=S(=O)([N-]S(=O)(=O)C(F)(F)F)C(F)(F)F,2,,,,1908,False,CC[n+]1ccn(C)c1.O=S(=O)([N-]S(=O)(=O)C(F)(F)F)C(F)(F)F,No changes
aDiZf,298.15,100.0,1038.0,Hauk et al. (2023),Liquid,0.1049,1-ethyl-3-methylimidazolium bis((trifluoromethyl)sulfonyl)imide,,,CC[n+]1ccn(C)c1.O=S(=O)([N-]S(=O)(=O)C(F)(F)F)C(F)(F)F,1-ethyl-3-methylimidazolium bis((trifluoromethyl)sulfonyl)imide,ABXNZH,CCO,ethanol,AAIsrh,CC[n+]1ccn(C)c1,O=S(=O)([N-]S(=O)(=O)C(F)(F)F)C(F)(F)F,2,,,,1909,False,CC[n+]1ccn(C)c1.O=S(=O)([N-]S(=O)(=O)C(F)(F)F)C(F)(F)F,No changes
aDiZf,298.15,100.0,1173.2,Hauk et al. (2023),Liquid,0.2,1-ethyl-3-methylimidazolium bis((trifluoromethyl)sulfonyl)imide,,,CC[n+]1ccn(C)c1.O=S(=O)([N-]S(=O)(=O)C(F)(F)F)C(F)(F)F,1-ethyl-3-methylimidazolium bis((trifluoromethyl)sulfonyl)imide,ABXNZH,CCO,ethanol,AAIsrh,CC[n+]1ccn(C)c1,O=S(=O)([N-]S(=O)(=O)C(F)(F)F)C(F)(F)F,2,,,,1910,False,CC[n+]1ccn(C)c1.O=S(=O)([N-]S(=O)(=O)C(F)(F)F)C(F)(F)F,No changes
aDiZf,298.15,100.0,1268.2,Hauk et al. (2023),Liquid,0.3005,1-ethyl-3-methylimidazolium bis((trifluoromethyl)sulfonyl)imide,,,CC[n+]1ccn(C)c1.O=S(=O)([N-]S(=O)(=O)C(F)(F)F)C(F)(F)F,1-ethyl-3-methylimidazolium bis((trifluoromethyl)sulfonyl)imide,ABXNZH,CCO,ethanol,AAIsrh,CC[n+]1ccn(C)c1,O=S(=O)([N-]S(=O)(=O)C(F)(F)F)C(F)(F)F,2,,,,1911,False,CC[n+]1ccn(C)c1.O=S(=O)([N-]S(=O)(=O)C(F)(F)F)C(F)(F)F,No changes
aDiZf,298.15,100.0,1333.7,Hauk et al. (2023),Liquid,0.3986,1-ethyl-3-methylimidazolium bis((trifluoromethyl)sulfonyl)imide,,,CC[n+]1ccn(C)c1.O=S(=O)([N-]S(=O)(=O)C(F)(F)F)C(F)(F)F,1-ethyl-3-methylimidazolium bis((trifluoromethyl)sulfonyl)imide,ABXNZH,CCO,ethanol,AAIsrh,CC[n+]1ccn(C)c1,O=S(=O)([N-]S(=O)(=O)C(F)(F)F)C(F)(F)F,2,,,,1912,False,CC[n+]1ccn(C)c1.O=S(=O)([N-]S(=O)(=O)C(F)(F)F)C(F)(F)F,No changes
aDiZf,298.15,100.0,1383.6,Hauk et al. (2023),Liquid,0.4978,1-ethyl-3-methylimidazolium bis((trifluoromethyl)sulfonyl)imide,,,CC[n+]1ccn(C)c1.O=S(=O)([N-]S(=O)(=O)C(F)(F)F)C(F)(F)F,1-ethyl-3-methylimidazolium bis((trifluoromethyl)sulfonyl)imide,ABXNZH,CCO,ethanol,AAIsrh,CC[n+]1ccn(C)c1,O=S(=O)([N-]S(=O)(=O)C(F)(F)F)C(F)(F)F,2,,,,1913,False,CC[n+]1ccn(C)c1.O=S(=O)([N-]S(=O)(=O)C(F)(F)F)C(F)(F)F,No changes
aDiZf,298.15,100.0,1421.3,Hauk et al. (2023),Liquid,0.5951,1-ethyl-3-methylimidazolium bis((trifluoromethyl)sulfonyl)imide,,,CC[n+]1ccn(C)c1.O=S(=O)([N-]S(=O)(=O)C(F)(F)F)C(F)(F)F,1-ethyl-3-methylimidazolium bis((trifluoromethyl)sulfonyl)imide,ABXNZH,CCO,ethanol,AAIsrh,CC[n+]1ccn(C)c1,O=S(=O)([N-]S(=O)(=O)C(F)(F)F)C(F)(F)F,2,,,,1914,False,CC[n+]1ccn(C)c1.O=S(=O)([N-]S(=O)(=O)C(F)(F)F)C(F)(F)F,No changes
aDiZf,298.15,100.0,1447.4,Hauk et al. (2023),Liquid,0.6768,1-ethyl-3-methylimidazolium bis((trifluoromethyl)sulfonyl)imide,,,CC[n+]1ccn(C)c1.O=S(=O)([N-]S(=O)(=O)C(F)(F)F)C(F)(F)F,1-ethyl-3-methylimidazolium bis((trifluoromethyl)sulfonyl)imide,ABXNZH,CCO,ethanol,AAIsrh,CC[n+]1ccn(C)c1,O=S(=O)([N-]S(=O)(=O)C(F)(F)F)C(F)(F)F,2,,,,1915,False,CC[n+]1ccn(C)c1.O=S(=O)([N-]S(=O)(=O)C(F)(F)F)C(F)(F)F,No changes
aDiZf,298.15,100.0,1476.2,Hauk et al. (2023),Liquid,0.788,1-ethyl-3-methylimidazolium bis((trifluoromethyl)sulfonyl)imide,,,CC[n+]1ccn(C)c1.O=S(=O)([N-]S(=O)(=O)C(F)(F)F)C(F)(F)F,1-ethyl-3-methylimidazolium bis((trifluoromethyl)sulfonyl)imide,ABXNZH,CCO,ethanol,AAIsrh,CC[n+]1ccn(C)c1,O=S(=O)([N-]S(=O)(=O)C(F)(F)F)C(F)(F)F,2,,,,1916,False,CC[n+]1ccn(C)c1.O=S(=O)([N-]S(=O)(=O)C(F)(F)F)C(F)(F)F,No changes
aDiZf,298.15,100.0,1496.3,Hauk et al. (2023),Liquid,0.8787,1-ethyl-3-methylimidazolium bis((trifluoromethyl)sulfonyl)imide,,,CC[n+]1ccn(C)c1.O=S(=O)([N-]S(=O)(=O)C(F)(F)F)C(F)(F)F,1-ethyl-3-methylimidazolium bis((trifluoromethyl)sulfonyl)imide,ABXNZH,CCO,ethanol,AAIsrh,CC[n+]1ccn(C)c1,O=S(=O)([N-]S(=O)(=O)C(F)(F)F)C(F)(F)F,2,,,,1917,False,CC[n+]1ccn(C)c1.O=S(=O)([N-]S(=O)(=O)C(F)(F)F)C(F)(F)F,No changes
aDiZf,298.15,100.0,1509.8,Hauk et al. (2023),Liquid,0.9477,1-ethyl-3-methylimidazolium bis((trifluoromethyl)sulfonyl)imide,,,CC[n+]1ccn(C)c1.O=S(=O)([N-]S(=O)(=O)C(F)(F)F)C(F)(F)F,1-ethyl-3-methylimidazolium bis((trifluoromethyl)sulfonyl)imide,ABXNZH,CCO,ethanol,AAIsrh,CC[n+]1ccn(C)c1,O=S(=O)([N-]S(=O)(=O)C(F)(F)F)C(F)(F)F,2,,,,1918,False,CC[n+]1ccn(C)c1.O=S(=O)([N-]S(=O)(=O)C(F)(F)F)C(F)(F)F,No changes
aDiZf,298.15,100.0,1519.1,Hauk et al. (2023),Liquid,1.0,1-ethyl-3-methylimidazolium bis((trifluoromethyl)sulfonyl)imide,,,CC[n+]1ccn(C)c1.O=S(=O)([N-]S(=O)(=O)C(F)(F)F)C(F)(F)F,1-ethyl-3-methylimidazolium bis((trifluoromethyl)sulfonyl)imide,ABXNZH,CCO,ethanol,AAIsrh,CC[n+]1ccn(C)c1,O=S(=O)([N-]S(=O)(=O)C(F)(F)F)C(F)(F)F,2,,,,1919,False,CC[n+]1ccn(C)c1.O=S(=O)([N-]S(=O)(=O)C(F)(F)F)C(F)(F)F,No changes
aDiZf,303.15,100.0,780.9,Hauk et al. (2023),Liquid,0.0,1-ethyl-3-methylimidazolium bis((trifluoromethyl)sulfonyl)imide,,,CC[n+]1ccn(C)c1.O=S(=O)([N-]S(=O)(=O)C(F)(F)F)C(F)(F)F,1-ethyl-3-methylimidazolium bis((trifluoromethyl)sulfonyl)imide,ABXNZH,CCO,ethanol,AAIsrh,CC[n+]1ccn(C)c1,O=S(=O)([N-]S(=O)(=O)C(F)(F)F)C(F)(F)F,2,,,,1920,False,CC[n+]1ccn(C)c1.O=S(=O)([N-]S(=O)(=O)C(F)(F)F)C(F)(F)F,No changes
aDiZf,303.15,100.0,922.0,Hauk et al. (2023),Liquid,0.0502,1-ethyl-3-methylimidazolium bis((trifluoromethyl)sulfonyl)imide,,,CC[n+]1ccn(C)c1.O=S(=O)([N-]S(=O)(=O)C(F)(F)F)C(F)(F)F,1-ethyl-3-methylimidazolium bis((trifluoromethyl)sulfonyl)imide,ABXNZH,CCO,ethanol,AAIsrh,CC[n+]1ccn(C)c1,O=S(=O)([N-]S(=O)(=O)C(F)(F)F)C(F)(F)F,2,,,,1921,False,CC[n+]1ccn(C)c1.O=S(=O)([N-]S(=O)(=O)C(F)(F)F)C(F)(F)F,No changes
aDiZf,303.15,100.0,1034.0,Hauk et al. (2023),Liquid,0.1049,1-ethyl-3-methylimidazolium bis((trifluoromethyl)sulfonyl)imide,,,CC[n+]1ccn(C)c1.O=S(=O)([N-]S(=O)(=O)C(F)(F)F)C(F)(F)F,1-ethyl-3-methylimidazolium bis((trifluoromethyl)sulfonyl)imide,ABXNZH,CCO,ethanol,AAIsrh,CC[n+]1ccn(C)c1,O=S(=O)([N-]S(=O)(=O)C(F)(F)F)C(F)(F)F,2,,,,1922,False,CC[n+]1ccn(C)c1.O=S(=O)([N-]S(=O)(=O)C(F)(F)F)C(F)(F)F,No changes
aDiZf,303.15,100.0,1168.5,Hauk et al. (2023),Liquid,0.2,1-ethyl-3-methylimidazolium bis((trifluoromethyl)sulfonyl)imide,,,CC[n+]1ccn(C)c1.O=S(=O)([N-]S(=O)(=O)C(F)(F)F)C(F)(F)F,1-ethyl-3-methylimidazolium bis((trifluoromethyl)sulfonyl)imide,ABXNZH,CCO,ethanol,AAIsrh,CC[n+]1ccn(C)c1,O=S(=O)([N-]S(=O)(=O)C(F)(F)F)C(F)(F)F,2,,,,1923,False,CC[n+]1ccn(C)c1.O=S(=O)([N-]S(=O)(=O)C(F)(F)F)C(F)(F)F,No changes
aDiZf,303.15,100.0,1263.1,Hauk et al. (2023),Liquid,0.3005,1-ethyl-3-methylimidazolium bis((trifluoromethyl)sulfonyl)imide,,,CC[n+]1ccn(C)c1.O=S(=O)([N-]S(=O)(=O)C(F)(F)F)C(F)(F)F,1-ethyl-3-methylimidazolium bis((trifluoromethyl)sulfonyl)imide,ABXNZH,CCO,ethanol,AAIsrh,CC[n+]1ccn(C)c1,O=S(=O)([N-]S(=O)(=O)C(F)(F)F)C(F)(F)F,2,,,,1924,False,CC[n+]1ccn(C)c1.O=S(=O)([N-]S(=O)(=O)C(F)(F)F)C(F)(F)F,No changes
aDiZf,303.15,100.0,1329.0,Hauk et al. (2023),Liquid,0.3986,1-ethyl-3-methylimidazolium bis((trifluoromethyl)sulfonyl)imide,,,CC[n+]1ccn(C)c1.O=S(=O)([N-]S(=O)(=O)C(F)(F)F)C(F)(F)F,1-ethyl-3-methylimidazolium bis((trifluoromethyl)sulfonyl)imide,ABXNZH,CCO,ethanol,AAIsrh,CC[n+]1ccn(C)c1,O=S(=O)([N-]S(=O)(=O)C(F)(F)F)C(F)(F)F,2,,,,1925,False,CC[n+]1ccn(C)c1.O=S(=O)([N-]S(=O)(=O)C(F)(F)F)C(F)(F)F,No changes
aDiZf,303.15,100.0,1378.3,Hauk et al. (2023),Liquid,0.4978,1-ethyl-3-methylimidazolium bis((trifluoromethyl)sulfonyl)imide,,,CC[n+]1ccn(C)c1.O=S(=O)([N-]S(=O)(=O)C(F)(F)F)C(F)(F)F,1-ethyl-3-methylimidazolium bis((trifluoromethyl)sulfonyl)imide,ABXNZH,CCO,ethanol,AAIsrh,CC[n+]1ccn(C)c1,O=S(=O)([N-]S(=O)(=O)C(F)(F)F)C(F)(F)F,2,,,,1926,False,CC[n+]1ccn(C)c1.O=S(=O)([N-]S(=O)(=O)C(F)(F)F)C(F)(F)F,No changes
aDiZf,303.15,100.0,1415.8,Hauk et al. (2023),Liquid,0.5951,1-ethyl-3-methylimidazolium bis((trifluoromethyl)sulfonyl)imide,,,CC[n+]1ccn(C)c1.O=S(=O)([N-]S(=O)(=O)C(F)(F)F)C(F)(F)F,1-ethyl-3-methylimidazolium bis((trifluoromethyl)sulfonyl)imide,ABXNZH,CCO,ethanol,AAIsrh,CC[n+]1ccn(C)c1,O=S(=O)([N-]S(=O)(=O)C(F)(F)F)C(F)(F)F,2,,,,1927,False,CC[n+]1ccn(C)c1.O=S(=O)([N-]S(=O)(=O)C(F)(F)F)C(F)(F)F,No changes
aDiZf,303.15,100.0,1442.1,Hauk et al. (2023),Liquid,0.6768,1-ethyl-3-methylimidazolium bis((trifluoromethyl)sulfonyl)imide,,,CC[n+]1ccn(C)c1.O=S(=O)([N-]S(=O)(=O)C(F)(F)F)C(F)(F)F,1-ethyl-3-methylimidazolium bis((trifluoromethyl)sulfonyl)imide,ABXNZH,CCO,ethanol,AAIsrh,CC[n+]1ccn(C)c1,O=S(=O)([N-]S(=O)(=O)C(F)(F)F)C(F)(F)F,2,,,,1928,False,CC[n+]1ccn(C)c1.O=S(=O)([N-]S(=O)(=O)C(F)(F)F)C(F)(F)F,No changes
aDiZf,303.15,100.0,1471.8,Hauk et al. (2023),Liquid,0.788,1-ethyl-3-methylimidazolium bis((trifluoromethyl)sulfonyl)imide,,,CC[n+]1ccn(C)c1.O=S(=O)([N-]S(=O)(=O)C(F)(F)F)C(F)(F)F,1-ethyl-3-methylimidazolium bis((trifluoromethyl)sulfonyl)imide,ABXNZH,CCO,ethanol,AAIsrh,CC[n+]1ccn(C)c1,O=S(=O)([N-]S(=O)(=O)C(F)(F)F)C(F)(F)F,2,,,,1929,False,CC[n+]1ccn(C)c1.O=S(=O)([N-]S(=O)(=O)C(F)(F)F)C(F)(F)F,No changes
aDiZf,303.15,100.0,1492.2,Hauk et al. (2023),Liquid,0.8787,1-ethyl-3-methylimidazolium bis((trifluoromethyl)sulfonyl)imide,,,CC[n+]1ccn(C)c1.O=S(=O)([N-]S(=O)(=O)C(F)(F)F)C(F)(F)F,1-ethyl-3-methylimidazolium bis((trifluoromethyl)sulfonyl)imide,ABXNZH,CCO,ethanol,AAIsrh,CC[n+]1ccn(C)c1,O=S(=O)([N-]S(=O)(=O)C(F)(F)F)C(F)(F)F,2,,,,1930,False,CC[n+]1ccn(C)c1.O=S(=O)([N-]S(=O)(=O)C(F)(F)F)C(F)(F)F,No changes
aDiZf,303.15,100.0,1505.9,Hauk et al. (2023),Liquid,0.9477,1-ethyl-3-methylimidazolium bis((trifluoromethyl)sulfonyl)imide,,,CC[n+]1ccn(C)c1.O=S(=O)([N-]S(=O)(=O)C(F)(F)F)C(F)(F)F,1-ethyl-3-methylimidazolium bis((trifluoromethyl)sulfonyl)imide,ABXNZH,CCO,ethanol,AAIsrh,CC[n+]1ccn(C)c1,O=S(=O)([N-]S(=O)(=O)C(F)(F)F)C(F)(F)F,2,,,,1931,False,CC[n+]1ccn(C)c1.O=S(=O)([N-]S(=O)(=O)C(F)(F)F)C(F)(F)F,No changes
aDiZf,303.15,100.0,1515.7,Hauk et al. (2023),Liquid,1.0,1-ethyl-3-methylimidazolium bis((trifluoromethyl)sulfonyl)imide,,,CC[n+]1ccn(C)c1.O=S(=O)([N-]S(=O)(=O)C(F)(F)F)C(F)(F)F,1-ethyl-3-methylimidazolium bis((trifluoromethyl)sulfonyl)imide,ABXNZH,CCO,ethanol,AAIsrh,CC[n+]1ccn(C)c1,O=S(=O)([N-]S(=O)(=O)C(F)(F)F)C(F)(F)F,2,,,,1932,False,CC[n+]1ccn(C)c1.O=S(=O)([N-]S(=O)(=O)C(F)(F)F)C(F)(F)F,No changes
aDiZf,308.15,100.0,776.7,Hauk et al. (2023),Liquid,0.0,1-ethyl-3-methylimidazolium bis((trifluoromethyl)sulfonyl)imide,,,CC[n+]1ccn(C)c1.O=S(=O)([N-]S(=O)(=O)C(F)(F)F)C(F)(F)F,1-ethyl-3-methylimidazolium bis((trifluoromethyl)sulfonyl)imide,ABXNZH,CCO,ethanol,AAIsrh,CC[n+]1ccn(C)c1,O=S(=O)([N-]S(=O)(=O)C(F)(F)F)C(F)(F)F,2,,,,1933,False,CC[n+]1ccn(C)c1.O=S(=O)([N-]S(=O)(=O)C(F)(F)F)C(F)(F)F,No changes
aDiZf,308.15,100.0,917.0,Hauk et al. (2023),Liquid,0.0502,1-ethyl-3-methylimidazolium bis((trifluoromethyl)sulfonyl)imide,,,CC[n+]1ccn(C)c1.O=S(=O)([N-]S(=O)(=O)C(F)(F)F)C(F)(F)F,1-ethyl-3-methylimidazolium bis((trifluoromethyl)sulfonyl)imide,ABXNZH,CCO,ethanol,AAIsrh,CC[n+]1ccn(C)c1,O=S(=O)([N-]S(=O)(=O)C(F)(F)F)C(F)(F)F,2,,,,1934,False,CC[n+]1ccn(C)c1.O=S(=O)([N-]S(=O)(=O)C(F)(F)F)C(F)(F)F,No changes
aDiZf,308.15,100.0,1029.0,Hauk et al. (2023),Liquid,0.1049,1-ethyl-3-methylimidazolium bis((trifluoromethyl)sulfonyl)imide,,,CC[n+]1ccn(C)c1.O=S(=O)([N-]S(=O)(=O)C(F)(F)F)C(F)(F)F,1-ethyl-3-methylimidazolium bis((trifluoromethyl)sulfonyl)imide,ABXNZH,CCO,ethanol,AAIsrh,CC[n+]1ccn(C)c1,O=S(=O)([N-]S(=O)(=O)C(F)(F)F)C(F)(F)F,2,,,,1935,False,CC[n+]1ccn(C)c1.O=S(=O)([N-]S(=O)(=O)C(F)(F)F)C(F)(F)F,No changes
aDiZf,308.15,100.0,1163.6,Hauk et al. (2023),Liquid,0.2,1-ethyl-3-methylimidazolium bis((trifluoromethyl)sulfonyl)imide,,,CC[n+]1ccn(C)c1.O=S(=O)([N-]S(=O)(=O)C(F)(F)F)C(F)(F)F,1-ethyl-3-methylimidazolium bis((trifluoromethyl)sulfonyl)imide,ABXNZH,CCO,ethanol,AAIsrh,CC[n+]1ccn(C)c1,O=S(=O)([N-]S(=O)(=O)C(F)(F)F)C(F)(F)F,2,,,,1936,False,CC[n+]1ccn(C)c1.O=S(=O)([N-]S(=O)(=O)C(F)(F)F)C(F)(F)F,No changes
aDiZf,308.15,100.0,1258.0,Hauk et al. (2023),Liquid,0.3005,1-ethyl-3-methylimidazolium bis((trifluoromethyl)sulfonyl)imide,,,CC[n+]1ccn(C)c1.O=S(=O)([N-]S(=O)(=O)C(F)(F)F)C(F)(F)F,1-ethyl-3-methylimidazolium bis((trifluoromethyl)sulfonyl)imide,ABXNZH,CCO,ethanol,AAIsrh,CC[n+]1ccn(C)c1,O=S(=O)([N-]S(=O)(=O)C(F)(F)F)C(F)(F)F,2,,,,1937,False,CC[n+]1ccn(C)c1.O=S(=O)([N-]S(=O)(=O)C(F)(F)F)C(F)(F)F,No changes
aDiZf,308.15,100.0,1324.0,Hauk et al. (2023),Liquid,0.3986,1-ethyl-3-methylimidazolium bis((trifluoromethyl)sulfonyl)imide,,,CC[n+]1ccn(C)c1.O=S(=O)([N-]S(=O)(=O)C(F)(F)F)C(F)(F)F,1-ethyl-3-methylimidazolium bis((trifluoromethyl)sulfonyl)imide,ABXNZH,CCO,ethanol,AAIsrh,CC[n+]1ccn(C)c1,O=S(=O)([N-]S(=O)(=O)C(F)(F)F)C(F)(F)F,2,,,,1938,False,CC[n+]1ccn(C)c1.O=S(=O)([N-]S(=O)(=O)C(F)(F)F)C(F)(F)F,No changes
aDiZf,308.15,100.0,1373.0,Hauk et al. (2023),Liquid,0.4978,1-ethyl-3-methylimidazolium bis((trifluoromethyl)sulfonyl)imide,,,CC[n+]1ccn(C)c1.O=S(=O)([N-]S(=O)(=O)C(F)(F)F)C(F)(F)F,1-ethyl-3-methylimidazolium bis((trifluoromethyl)sulfonyl)imide,ABXNZH,CCO,ethanol,AAIsrh,CC[n+]1ccn(C)c1,O=S(=O)([N-]S(=O)(=O)C(F)(F)F)C(F)(F)F,2,,,,1939,False,CC[n+]1ccn(C)c1.O=S(=O)([N-]S(=O)(=O)C(F)(F)F)C(F)(F)F,No changes
aDiZf,308.15,100.0,1411.0,Hauk et al. (2023),Liquid,0.5951,1-ethyl-3-methylimidazolium bis((trifluoromethyl)sulfonyl)imide,,,CC[n+]1ccn(C)c1.O=S(=O)([N-]S(=O)(=O)C(F)(F)F)C(F)(F)F,1-ethyl-3-methylimidazolium bis((trifluoromethyl)sulfonyl)imide,ABXNZH,CCO,ethanol,AAIsrh,CC[n+]1ccn(C)c1,O=S(=O)([N-]S(=O)(=O)C(F)(F)F)C(F)(F)F,2,,,,1940,False,CC[n+]1ccn(C)c1.O=S(=O)([N-]S(=O)(=O)C(F)(F)F)C(F)(F)F,No changes
aDiZf,308.15,100.0,1437.1,Hauk et al. (2023),Liquid,0.6768,1-ethyl-3-methylimidazolium bis((trifluoromethyl)sulfonyl)imide,,,CC[n+]1ccn(C)c1.O=S(=O)([N-]S(=O)(=O)C(F)(F)F)C(F)(F)F,1-ethyl-3-methylimidazolium bis((trifluoromethyl)sulfonyl)imide,ABXNZH,CCO,ethanol,AAIsrh,CC[n+]1ccn(C)c1,O=S(=O)([N-]S(=O)(=O)C(F)(F)F)C(F)(F)F,2,,,,1941,False,CC[n+]1ccn(C)c1.O=S(=O)([N-]S(=O)(=O)C(F)(F)F)C(F)(F)F,No changes
aDiZf,308.15,100.0,1466.8,Hauk et al. (2023),Liquid,0.788,1-ethyl-3-methylimidazolium bis((trifluoromethyl)sulfonyl)imide,,,CC[n+]1ccn(C)c1.O=S(=O)([N-]S(=O)(=O)C(F)(F)F)C(F)(F)F,1-ethyl-3-methylimidazolium bis((trifluoromethyl)sulfonyl)imide,ABXNZH,CCO,ethanol,AAIsrh,CC[n+]1ccn(C)c1,O=S(=O)([N-]S(=O)(=O)C(F)(F)F)C(F)(F)F,2,,,,1942,False,CC[n+]1ccn(C)c1.O=S(=O)([N-]S(=O)(=O)C(F)(F)F)C(F)(F)F,No changes
aDiZf,308.15,100.0,1487.1,Hauk et al. (2023),Liquid,0.8787,1-ethyl-3-methylimidazolium bis((trifluoromethyl)sulfonyl)imide,,,CC[n+]1ccn(C)c1.O=S(=O)([N-]S(=O)(=O)C(F)(F)F)C(F)(F)F,1-ethyl-3-methylimidazolium bis((trifluoromethyl)sulfonyl)imide,ABXNZH,CCO,ethanol,AAIsrh,CC[n+]1ccn(C)c1,O=S(=O)([N-]S(=O)(=O)C(F)(F)F)C(F)(F)F,2,,,,1943,False,CC[n+]1ccn(C)c1.O=S(=O)([N-]S(=O)(=O)C(F)(F)F)C(F)(F)F,No changes
aDiZf,308.15,100.0,1501.0,Hauk et al. (2023),Liquid,0.9477,1-ethyl-3-methylimidazolium bis((trifluoromethyl)sulfonyl)imide,,,CC[n+]1ccn(C)c1.O=S(=O)([N-]S(=O)(=O)C(F)(F)F)C(F)(F)F,1-ethyl-3-methylimidazolium bis((trifluoromethyl)sulfonyl)imide,ABXNZH,CCO,ethanol,AAIsrh,CC[n+]1ccn(C)c1,O=S(=O)([N-]S(=O)(=O)C(F)(F)F)C(F)(F)F,2,,,,1944,False,CC[n+]1ccn(C)c1.O=S(=O)([N-]S(=O)(=O)C(F)(F)F)C(F)(F)F,No changes
aDiZf,308.15,100.0,1511.2,Hauk et al. (2023),Liquid,1.0,1-ethyl-3-methylimidazolium bis((trifluoromethyl)sulfonyl)imide,,,CC[n+]1ccn(C)c1.O=S(=O)([N-]S(=O)(=O)C(F)(F)F)C(F)(F)F,1-ethyl-3-methylimidazolium bis((trifluoromethyl)sulfonyl)imide,ABXNZH,CCO,ethanol,AAIsrh,CC[n+]1ccn(C)c1,O=S(=O)([N-]S(=O)(=O)C(F)(F)F)C(F)(F)F,2,,,,1945,False,CC[n+]1ccn(C)c1.O=S(=O)([N-]S(=O)(=O)C(F)(F)F)C(F)(F)F,No changes