setid,Temperature (K),Pressure (kPa),Density (kg/m3),reference,phases,Mole fraction,Mole fraction of compound name,Weight fraction,Weight fraction of compound name,IL_SMILES,IL_name,IL_ID,Solvent_SMILES,Solvent_name,Solvent_ID,IL_cation_SMILES,IL_anion_SMILES,IL_component_number,Mole fraction of solvent,IL_MW,Solvent_MW,Record_ID,Contains_Metal,Standardized_IL_SMILES,Changes
hZHzt,313.15,101.0,1029.3,Cai et al. (2020c),Liquid,0.3002,bis(2-hydroxyethyl)dimethylammonium methanesulfonate,,,C[N+](C)(CCO)CCO.CS(=O)(=O)[O-],bis(2-hydroxyethyl)dimethylammonium methanesulfonate,AAsEXb,CC(C)O,propan-2-ol,AALcwx,C[N+](C)(CCO)CCO,CS(=O)(=O)[O-],2,,,,764,False,C[N+](C)(CCO)CCO.CS(=O)(=O)[O-],No changes
hZHzt,313.15,101.0,1087.2,Cai et al. (2020c),Liquid,0.4004,bis(2-hydroxyethyl)dimethylammonium methanesulfonate,,,C[N+](C)(CCO)CCO.CS(=O)(=O)[O-],bis(2-hydroxyethyl)dimethylammonium methanesulfonate,AAsEXb,CC(C)O,propan-2-ol,AALcwx,C[N+](C)(CCO)CCO,CS(=O)(=O)[O-],2,,,,765,False,C[N+](C)(CCO)CCO.CS(=O)(=O)[O-],No changes
hZHzt,313.15,101.0,1135.0,Cai et al. (2020c),Liquid,0.4982,bis(2-hydroxyethyl)dimethylammonium methanesulfonate,,,C[N+](C)(CCO)CCO.CS(=O)(=O)[O-],bis(2-hydroxyethyl)dimethylammonium methanesulfonate,AAsEXb,CC(C)O,propan-2-ol,AALcwx,C[N+](C)(CCO)CCO,CS(=O)(=O)[O-],2,,,,766,False,C[N+](C)(CCO)CCO.CS(=O)(=O)[O-],No changes
hZHzt,313.15,101.0,1176.7,Cai et al. (2020c),Liquid,0.5999,bis(2-hydroxyethyl)dimethylammonium methanesulfonate,,,C[N+](C)(CCO)CCO.CS(=O)(=O)[O-],bis(2-hydroxyethyl)dimethylammonium methanesulfonate,AAsEXb,CC(C)O,propan-2-ol,AALcwx,C[N+](C)(CCO)CCO,CS(=O)(=O)[O-],2,,,,767,False,C[N+](C)(CCO)CCO.CS(=O)(=O)[O-],No changes
hZHzt,313.15,101.0,1212.0,Cai et al. (2020c),Liquid,0.6997,bis(2-hydroxyethyl)dimethylammonium methanesulfonate,,,C[N+](C)(CCO)CCO.CS(=O)(=O)[O-],bis(2-hydroxyethyl)dimethylammonium methanesulfonate,AAsEXb,CC(C)O,propan-2-ol,AALcwx,C[N+](C)(CCO)CCO,CS(=O)(=O)[O-],2,,,,768,False,C[N+](C)(CCO)CCO.CS(=O)(=O)[O-],No changes
hZHzt,313.15,101.0,1242.2,Cai et al. (2020c),Liquid,0.7978,bis(2-hydroxyethyl)dimethylammonium methanesulfonate,,,C[N+](C)(CCO)CCO.CS(=O)(=O)[O-],bis(2-hydroxyethyl)dimethylammonium methanesulfonate,AAsEXb,CC(C)O,propan-2-ol,AALcwx,C[N+](C)(CCO)CCO,CS(=O)(=O)[O-],2,,,,769,False,C[N+](C)(CCO)CCO.CS(=O)(=O)[O-],No changes
hZHzt,313.15,101.0,1269.0,Cai et al. (2020c),Liquid,0.8994,bis(2-hydroxyethyl)dimethylammonium methanesulfonate,,,C[N+](C)(CCO)CCO.CS(=O)(=O)[O-],bis(2-hydroxyethyl)dimethylammonium methanesulfonate,AAsEXb,CC(C)O,propan-2-ol,AALcwx,C[N+](C)(CCO)CCO,CS(=O)(=O)[O-],2,,,,770,False,C[N+](C)(CCO)CCO.CS(=O)(=O)[O-],No changes
hZHzt,313.15,101.0,1288.6,Cai et al. (2020c),Liquid,1.0,bis(2-hydroxyethyl)dimethylammonium methanesulfonate,,,C[N+](C)(CCO)CCO.CS(=O)(=O)[O-],bis(2-hydroxyethyl)dimethylammonium methanesulfonate,AAsEXb,CC(C)O,propan-2-ol,AALcwx,C[N+](C)(CCO)CCO,CS(=O)(=O)[O-],2,,,,771,False,C[N+](C)(CCO)CCO.CS(=O)(=O)[O-],No changes
hZHzt,318.15,101.0,763.5,Cai et al. (2020c),Liquid,0.0,bis(2-hydroxyethyl)dimethylammonium methanesulfonate,,,C[N+](C)(CCO)CCO.CS(=O)(=O)[O-],bis(2-hydroxyethyl)dimethylammonium methanesulfonate,AAsEXb,CC(C)O,propan-2-ol,AALcwx,C[N+](C)(CCO)CCO,CS(=O)(=O)[O-],2,,,,772,False,C[N+](C)(CCO)CCO.CS(=O)(=O)[O-],No changes
hZHzt,318.15,101.0,870.6,Cai et al. (2020c),Liquid,0.0998,bis(2-hydroxyethyl)dimethylammonium methanesulfonate,,,C[N+](C)(CCO)CCO.CS(=O)(=O)[O-],bis(2-hydroxyethyl)dimethylammonium methanesulfonate,AAsEXb,CC(C)O,propan-2-ol,AALcwx,C[N+](C)(CCO)CCO,CS(=O)(=O)[O-],2,,,,773,False,C[N+](C)(CCO)CCO.CS(=O)(=O)[O-],No changes
hZHzt,318.15,101.0,955.3,Cai et al. (2020c),Liquid,0.2001,bis(2-hydroxyethyl)dimethylammonium methanesulfonate,,,C[N+](C)(CCO)CCO.CS(=O)(=O)[O-],bis(2-hydroxyethyl)dimethylammonium methanesulfonate,AAsEXb,CC(C)O,propan-2-ol,AALcwx,C[N+](C)(CCO)CCO,CS(=O)(=O)[O-],2,,,,774,False,C[N+](C)(CCO)CCO.CS(=O)(=O)[O-],No changes
hZHzt,318.15,101.0,1025.8,Cai et al. (2020c),Liquid,0.3002,bis(2-hydroxyethyl)dimethylammonium methanesulfonate,,,C[N+](C)(CCO)CCO.CS(=O)(=O)[O-],bis(2-hydroxyethyl)dimethylammonium methanesulfonate,AAsEXb,CC(C)O,propan-2-ol,AALcwx,C[N+](C)(CCO)CCO,CS(=O)(=O)[O-],2,,,,775,False,C[N+](C)(CCO)CCO.CS(=O)(=O)[O-],No changes
hZHzt,318.15,101.0,1083.8,Cai et al. (2020c),Liquid,0.4004,bis(2-hydroxyethyl)dimethylammonium methanesulfonate,,,C[N+](C)(CCO)CCO.CS(=O)(=O)[O-],bis(2-hydroxyethyl)dimethylammonium methanesulfonate,AAsEXb,CC(C)O,propan-2-ol,AALcwx,C[N+](C)(CCO)CCO,CS(=O)(=O)[O-],2,,,,776,False,C[N+](C)(CCO)CCO.CS(=O)(=O)[O-],No changes
hZHzt,318.15,101.0,1131.7,Cai et al. (2020c),Liquid,0.4982,bis(2-hydroxyethyl)dimethylammonium methanesulfonate,,,C[N+](C)(CCO)CCO.CS(=O)(=O)[O-],bis(2-hydroxyethyl)dimethylammonium methanesulfonate,AAsEXb,CC(C)O,propan-2-ol,AALcwx,C[N+](C)(CCO)CCO,CS(=O)(=O)[O-],2,,,,777,False,C[N+](C)(CCO)CCO.CS(=O)(=O)[O-],No changes
hZHzt,318.15,101.0,1173.4,Cai et al. (2020c),Liquid,0.5999,bis(2-hydroxyethyl)dimethylammonium methanesulfonate,,,C[N+](C)(CCO)CCO.CS(=O)(=O)[O-],bis(2-hydroxyethyl)dimethylammonium methanesulfonate,AAsEXb,CC(C)O,propan-2-ol,AALcwx,C[N+](C)(CCO)CCO,CS(=O)(=O)[O-],2,,,,778,False,C[N+](C)(CCO)CCO.CS(=O)(=O)[O-],No changes
hZHzt,318.15,101.0,1208.8,Cai et al. (2020c),Liquid,0.6997,bis(2-hydroxyethyl)dimethylammonium methanesulfonate,,,C[N+](C)(CCO)CCO.CS(=O)(=O)[O-],bis(2-hydroxyethyl)dimethylammonium methanesulfonate,AAsEXb,CC(C)O,propan-2-ol,AALcwx,C[N+](C)(CCO)CCO,CS(=O)(=O)[O-],2,,,,779,False,C[N+](C)(CCO)CCO.CS(=O)(=O)[O-],No changes
hZHzt,318.15,101.0,1239.0,Cai et al. (2020c),Liquid,0.7978,bis(2-hydroxyethyl)dimethylammonium methanesulfonate,,,C[N+](C)(CCO)CCO.CS(=O)(=O)[O-],bis(2-hydroxyethyl)dimethylammonium methanesulfonate,AAsEXb,CC(C)O,propan-2-ol,AALcwx,C[N+](C)(CCO)CCO,CS(=O)(=O)[O-],2,,,,780,False,C[N+](C)(CCO)CCO.CS(=O)(=O)[O-],No changes
hZHzt,318.15,101.0,1265.9,Cai et al. (2020c),Liquid,0.8994,bis(2-hydroxyethyl)dimethylammonium methanesulfonate,,,C[N+](C)(CCO)CCO.CS(=O)(=O)[O-],bis(2-hydroxyethyl)dimethylammonium methanesulfonate,AAsEXb,CC(C)O,propan-2-ol,AALcwx,C[N+](C)(CCO)CCO,CS(=O)(=O)[O-],2,,,,781,False,C[N+](C)(CCO)CCO.CS(=O)(=O)[O-],No changes
hZHzt,318.15,101.0,1285.5,Cai et al. (2020c),Liquid,1.0,bis(2-hydroxyethyl)dimethylammonium methanesulfonate,,,C[N+](C)(CCO)CCO.CS(=O)(=O)[O-],bis(2-hydroxyethyl)dimethylammonium methanesulfonate,AAsEXb,CC(C)O,propan-2-ol,AALcwx,C[N+](C)(CCO)CCO,CS(=O)(=O)[O-],2,,,,782,False,C[N+](C)(CCO)CCO.CS(=O)(=O)[O-],No changes
hZHzt,323.15,101.0,758.8,Cai et al. (2020c),Liquid,0.0,bis(2-hydroxyethyl)dimethylammonium methanesulfonate,,,C[N+](C)(CCO)CCO.CS(=O)(=O)[O-],bis(2-hydroxyethyl)dimethylammonium methanesulfonate,AAsEXb,CC(C)O,propan-2-ol,AALcwx,C[N+](C)(CCO)CCO,CS(=O)(=O)[O-],2,,,,783,False,C[N+](C)(CCO)CCO.CS(=O)(=O)[O-],No changes
hZHzt,323.15,101.0,866.3,Cai et al. (2020c),Liquid,0.0998,bis(2-hydroxyethyl)dimethylammonium methanesulfonate,,,C[N+](C)(CCO)CCO.CS(=O)(=O)[O-],bis(2-hydroxyethyl)dimethylammonium methanesulfonate,AAsEXb,CC(C)O,propan-2-ol,AALcwx,C[N+](C)(CCO)CCO,CS(=O)(=O)[O-],2,,,,784,False,C[N+](C)(CCO)CCO.CS(=O)(=O)[O-],No changes
hZHzt,323.15,101.0,952.3,Cai et al. (2020c),Liquid,0.2001,bis(2-hydroxyethyl)dimethylammonium methanesulfonate,,,C[N+](C)(CCO)CCO.CS(=O)(=O)[O-],bis(2-hydroxyethyl)dimethylammonium methanesulfonate,AAsEXb,CC(C)O,propan-2-ol,AALcwx,C[N+](C)(CCO)CCO,CS(=O)(=O)[O-],2,,,,785,False,C[N+](C)(CCO)CCO.CS(=O)(=O)[O-],No changes
hZHzt,323.15,101.0,1022.2,Cai et al. (2020c),Liquid,0.3002,bis(2-hydroxyethyl)dimethylammonium methanesulfonate,,,C[N+](C)(CCO)CCO.CS(=O)(=O)[O-],bis(2-hydroxyethyl)dimethylammonium methanesulfonate,AAsEXb,CC(C)O,propan-2-ol,AALcwx,C[N+](C)(CCO)CCO,CS(=O)(=O)[O-],2,,,,786,False,C[N+](C)(CCO)CCO.CS(=O)(=O)[O-],No changes
hZHzt,323.15,101.0,1080.2,Cai et al. (2020c),Liquid,0.4004,bis(2-hydroxyethyl)dimethylammonium methanesulfonate,,,C[N+](C)(CCO)CCO.CS(=O)(=O)[O-],bis(2-hydroxyethyl)dimethylammonium methanesulfonate,AAsEXb,CC(C)O,propan-2-ol,AALcwx,C[N+](C)(CCO)CCO,CS(=O)(=O)[O-],2,,,,787,False,C[N+](C)(CCO)CCO.CS(=O)(=O)[O-],No changes
hZHzt,323.15,101.0,1128.2,Cai et al. (2020c),Liquid,0.4982,bis(2-hydroxyethyl)dimethylammonium methanesulfonate,,,C[N+](C)(CCO)CCO.CS(=O)(=O)[O-],bis(2-hydroxyethyl)dimethylammonium methanesulfonate,AAsEXb,CC(C)O,propan-2-ol,AALcwx,C[N+](C)(CCO)CCO,CS(=O)(=O)[O-],2,,,,788,False,C[N+](C)(CCO)CCO.CS(=O)(=O)[O-],No changes
hZHzt,323.15,101.0,1170.0,Cai et al. (2020c),Liquid,0.5999,bis(2-hydroxyethyl)dimethylammonium methanesulfonate,,,C[N+](C)(CCO)CCO.CS(=O)(=O)[O-],bis(2-hydroxyethyl)dimethylammonium methanesulfonate,AAsEXb,CC(C)O,propan-2-ol,AALcwx,C[N+](C)(CCO)CCO,CS(=O)(=O)[O-],2,,,,789,False,C[N+](C)(CCO)CCO.CS(=O)(=O)[O-],No changes
hZHzt,323.15,101.0,1205.5,Cai et al. (2020c),Liquid,0.6997,bis(2-hydroxyethyl)dimethylammonium methanesulfonate,,,C[N+](C)(CCO)CCO.CS(=O)(=O)[O-],bis(2-hydroxyethyl)dimethylammonium methanesulfonate,AAsEXb,CC(C)O,propan-2-ol,AALcwx,C[N+](C)(CCO)CCO,CS(=O)(=O)[O-],2,,,,790,False,C[N+](C)(CCO)CCO.CS(=O)(=O)[O-],No changes
hZHzt,323.15,101.0,1235.7,Cai et al. (2020c),Liquid,0.7978,bis(2-hydroxyethyl)dimethylammonium methanesulfonate,,,C[N+](C)(CCO)CCO.CS(=O)(=O)[O-],bis(2-hydroxyethyl)dimethylammonium methanesulfonate,AAsEXb,CC(C)O,propan-2-ol,AALcwx,C[N+](C)(CCO)CCO,CS(=O)(=O)[O-],2,,,,791,False,C[N+](C)(CCO)CCO.CS(=O)(=O)[O-],No changes
hZHzt,323.15,101.0,1262.6,Cai et al. (2020c),Liquid,0.8994,bis(2-hydroxyethyl)dimethylammonium methanesulfonate,,,C[N+](C)(CCO)CCO.CS(=O)(=O)[O-],bis(2-hydroxyethyl)dimethylammonium methanesulfonate,AAsEXb,CC(C)O,propan-2-ol,AALcwx,C[N+](C)(CCO)CCO,CS(=O)(=O)[O-],2,,,,792,False,C[N+](C)(CCO)CCO.CS(=O)(=O)[O-],No changes
hZHzt,323.15,101.0,1282.3,Cai et al. (2020c),Liquid,1.0,bis(2-hydroxyethyl)dimethylammonium methanesulfonate,,,C[N+](C)(CCO)CCO.CS(=O)(=O)[O-],bis(2-hydroxyethyl)dimethylammonium methanesulfonate,AAsEXb,CC(C)O,propan-2-ol,AALcwx,C[N+](C)(CCO)CCO,CS(=O)(=O)[O-],2,,,,793,False,C[N+](C)(CCO)CCO.CS(=O)(=O)[O-],No changes
vRbvi,278.15,101.0,797.5,Vercher et al. (2018),Liquid,0.0,1-butyl-1-methylpyrrolidinium trifluoromethanesulfonate,,,CCCC[N+]1(C)CCCC1.O=S(=O)([O-])C(F)(F)F,1-butyl-1-methylpyrrolidinium trifluoromethanesulfonate,ABEBwg,CC(C)O,propan-2-ol,AALcwx,CCCC[N+]1(C)CCCC1,O=S(=O)([O-])C(F)(F)F,2,,,,794,False,CCCC[N+]1(C)CCCC1.O=S(=O)([O-])C(F)(F)F,No changes
vRbvi,278.15,101.0,865.1,Vercher et al. (2018),Liquid,0.0506,1-butyl-1-methylpyrrolidinium trifluoromethanesulfonate,,,CCCC[N+]1(C)CCCC1.O=S(=O)([O-])C(F)(F)F,1-butyl-1-methylpyrrolidinium trifluoromethanesulfonate,ABEBwg,CC(C)O,propan-2-ol,AALcwx,CCCC[N+]1(C)CCCC1,O=S(=O)([O-])C(F)(F)F,2,,,,795,False,CCCC[N+]1(C)CCCC1.O=S(=O)([O-])C(F)(F)F,No changes
vRbvi,278.15,101.0,921.0,Vercher et al. (2018),Liquid,0.1019,1-butyl-1-methylpyrrolidinium trifluoromethanesulfonate,,,CCCC[N+]1(C)CCCC1.O=S(=O)([O-])C(F)(F)F,1-butyl-1-methylpyrrolidinium trifluoromethanesulfonate,ABEBwg,CC(C)O,propan-2-ol,AALcwx,CCCC[N+]1(C)CCCC1,O=S(=O)([O-])C(F)(F)F,2,,,,796,False,CCCC[N+]1(C)CCCC1.O=S(=O)([O-])C(F)(F)F,No changes
vRbvi,278.15,101.0,965.2,Vercher et al. (2018),Liquid,0.1505,1-butyl-1-methylpyrrolidinium trifluoromethanesulfonate,,,CCCC[N+]1(C)CCCC1.O=S(=O)([O-])C(F)(F)F,1-butyl-1-methylpyrrolidinium trifluoromethanesulfonate,ABEBwg,CC(C)O,propan-2-ol,AALcwx,CCCC[N+]1(C)CCCC1,O=S(=O)([O-])C(F)(F)F,2,,,,797,False,CCCC[N+]1(C)CCCC1.O=S(=O)([O-])C(F)(F)F,No changes
vRbvi,278.15,101.0,1004.0,Vercher et al. (2018),Liquid,0.2002,1-butyl-1-methylpyrrolidinium trifluoromethanesulfonate,,,CCCC[N+]1(C)CCCC1.O=S(=O)([O-])C(F)(F)F,1-butyl-1-methylpyrrolidinium trifluoromethanesulfonate,ABEBwg,CC(C)O,propan-2-ol,AALcwx,CCCC[N+]1(C)CCCC1,O=S(=O)([O-])C(F)(F)F,2,,,,798,False,CCCC[N+]1(C)CCCC1.O=S(=O)([O-])C(F)(F)F,No changes
vRbvi,278.15,101.0,1066.6,Vercher et al. (2018),Liquid,0.3002,1-butyl-1-methylpyrrolidinium trifluoromethanesulfonate,,,CCCC[N+]1(C)CCCC1.O=S(=O)([O-])C(F)(F)F,1-butyl-1-methylpyrrolidinium trifluoromethanesulfonate,ABEBwg,CC(C)O,propan-2-ol,AALcwx,CCCC[N+]1(C)CCCC1,O=S(=O)([O-])C(F)(F)F,2,,,,799,False,CCCC[N+]1(C)CCCC1.O=S(=O)([O-])C(F)(F)F,No changes
vRbvi,278.15,101.0,1114.7,Vercher et al. (2018),Liquid,0.3997,1-butyl-1-methylpyrrolidinium trifluoromethanesulfonate,,,CCCC[N+]1(C)CCCC1.O=S(=O)([O-])C(F)(F)F,1-butyl-1-methylpyrrolidinium trifluoromethanesulfonate,ABEBwg,CC(C)O,propan-2-ol,AALcwx,CCCC[N+]1(C)CCCC1,O=S(=O)([O-])C(F)(F)F,2,,,,800,False,CCCC[N+]1(C)CCCC1.O=S(=O)([O-])C(F)(F)F,No changes
vRbvi,278.15,101.0,1153.0,Vercher et al. (2018),Liquid,0.4996,1-butyl-1-methylpyrrolidinium trifluoromethanesulfonate,,,CCCC[N+]1(C)CCCC1.O=S(=O)([O-])C(F)(F)F,1-butyl-1-methylpyrrolidinium trifluoromethanesulfonate,ABEBwg,CC(C)O,propan-2-ol,AALcwx,CCCC[N+]1(C)CCCC1,O=S(=O)([O-])C(F)(F)F,2,,,,801,False,CCCC[N+]1(C)CCCC1.O=S(=O)([O-])C(F)(F)F,No changes
vRbvi,278.15,101.0,1184.3,Vercher et al. (2018),Liquid,0.6001,1-butyl-1-methylpyrrolidinium trifluoromethanesulfonate,,,CCCC[N+]1(C)CCCC1.O=S(=O)([O-])C(F)(F)F,1-butyl-1-methylpyrrolidinium trifluoromethanesulfonate,ABEBwg,CC(C)O,propan-2-ol,AALcwx,CCCC[N+]1(C)CCCC1,O=S(=O)([O-])C(F)(F)F,2,,,,802,False,CCCC[N+]1(C)CCCC1.O=S(=O)([O-])C(F)(F)F,No changes
vRbvi,278.15,101.0,1210.1,Vercher et al. (2018),Liquid,0.6999,1-butyl-1-methylpyrrolidinium trifluoromethanesulfonate,,,CCCC[N+]1(C)CCCC1.O=S(=O)([O-])C(F)(F)F,1-butyl-1-methylpyrrolidinium trifluoromethanesulfonate,ABEBwg,CC(C)O,propan-2-ol,AALcwx,CCCC[N+]1(C)CCCC1,O=S(=O)([O-])C(F)(F)F,2,,,,803,False,CCCC[N+]1(C)CCCC1.O=S(=O)([O-])C(F)(F)F,No changes
vRbvi,278.15,101.0,1232.3,Vercher et al. (2018),Liquid,0.8015,1-butyl-1-methylpyrrolidinium trifluoromethanesulfonate,,,CCCC[N+]1(C)CCCC1.O=S(=O)([O-])C(F)(F)F,1-butyl-1-methylpyrrolidinium trifluoromethanesulfonate,ABEBwg,CC(C)O,propan-2-ol,AALcwx,CCCC[N+]1(C)CCCC1,O=S(=O)([O-])C(F)(F)F,2,,,,804,False,CCCC[N+]1(C)CCCC1.O=S(=O)([O-])C(F)(F)F,No changes
vRbvi,278.15,101.0,1241.8,Vercher et al. (2018),Liquid,0.8501,1-butyl-1-methylpyrrolidinium trifluoromethanesulfonate,,,CCCC[N+]1(C)CCCC1.O=S(=O)([O-])C(F)(F)F,1-butyl-1-methylpyrrolidinium trifluoromethanesulfonate,ABEBwg,CC(C)O,propan-2-ol,AALcwx,CCCC[N+]1(C)CCCC1,O=S(=O)([O-])C(F)(F)F,2,,,,805,False,CCCC[N+]1(C)CCCC1.O=S(=O)([O-])C(F)(F)F,No changes
vRbvi,278.15,101.0,1250.7,Vercher et al. (2018),Liquid,0.8993,1-butyl-1-methylpyrrolidinium trifluoromethanesulfonate,,,CCCC[N+]1(C)CCCC1.O=S(=O)([O-])C(F)(F)F,1-butyl-1-methylpyrrolidinium trifluoromethanesulfonate,ABEBwg,CC(C)O,propan-2-ol,AALcwx,CCCC[N+]1(C)CCCC1,O=S(=O)([O-])C(F)(F)F,2,,,,806,False,CCCC[N+]1(C)CCCC1.O=S(=O)([O-])C(F)(F)F,No changes
vRbvi,278.15,101.0,1258.9,Vercher et al. (2018),Liquid,0.9482,1-butyl-1-methylpyrrolidinium trifluoromethanesulfonate,,,CCCC[N+]1(C)CCCC1.O=S(=O)([O-])C(F)(F)F,1-butyl-1-methylpyrrolidinium trifluoromethanesulfonate,ABEBwg,CC(C)O,propan-2-ol,AALcwx,CCCC[N+]1(C)CCCC1,O=S(=O)([O-])C(F)(F)F,2,,,,807,False,CCCC[N+]1(C)CCCC1.O=S(=O)([O-])C(F)(F)F,No changes
vRbvi,278.15,101.0,1267.1,Vercher et al. (2018),Liquid,1.0,1-butyl-1-methylpyrrolidinium trifluoromethanesulfonate,,,CCCC[N+]1(C)CCCC1.O=S(=O)([O-])C(F)(F)F,1-butyl-1-methylpyrrolidinium trifluoromethanesulfonate,ABEBwg,CC(C)O,propan-2-ol,AALcwx,CCCC[N+]1(C)CCCC1,O=S(=O)([O-])C(F)(F)F,2,,,,808,False,CCCC[N+]1(C)CCCC1.O=S(=O)([O-])C(F)(F)F,No changes
vRbvi,288.15,101.0,789.4,Vercher et al. (2018),Liquid,0.0,1-butyl-1-methylpyrrolidinium trifluoromethanesulfonate,,,CCCC[N+]1(C)CCCC1.O=S(=O)([O-])C(F)(F)F,1-butyl-1-methylpyrrolidinium trifluoromethanesulfonate,ABEBwg,CC(C)O,propan-2-ol,AALcwx,CCCC[N+]1(C)CCCC1,O=S(=O)([O-])C(F)(F)F,2,,,,809,False,CCCC[N+]1(C)CCCC1.O=S(=O)([O-])C(F)(F)F,No changes
vRbvi,288.15,101.0,857.0,Vercher et al. (2018),Liquid,0.0506,1-butyl-1-methylpyrrolidinium trifluoromethanesulfonate,,,CCCC[N+]1(C)CCCC1.O=S(=O)([O-])C(F)(F)F,1-butyl-1-methylpyrrolidinium trifluoromethanesulfonate,ABEBwg,CC(C)O,propan-2-ol,AALcwx,CCCC[N+]1(C)CCCC1,O=S(=O)([O-])C(F)(F)F,2,,,,810,False,CCCC[N+]1(C)CCCC1.O=S(=O)([O-])C(F)(F)F,No changes
vRbvi,288.15,101.0,912.9,Vercher et al. (2018),Liquid,0.1019,1-butyl-1-methylpyrrolidinium trifluoromethanesulfonate,,,CCCC[N+]1(C)CCCC1.O=S(=O)([O-])C(F)(F)F,1-butyl-1-methylpyrrolidinium trifluoromethanesulfonate,ABEBwg,CC(C)O,propan-2-ol,AALcwx,CCCC[N+]1(C)CCCC1,O=S(=O)([O-])C(F)(F)F,2,,,,811,False,CCCC[N+]1(C)CCCC1.O=S(=O)([O-])C(F)(F)F,No changes
vRbvi,288.15,101.0,957.2,Vercher et al. (2018),Liquid,0.1505,1-butyl-1-methylpyrrolidinium trifluoromethanesulfonate,,,CCCC[N+]1(C)CCCC1.O=S(=O)([O-])C(F)(F)F,1-butyl-1-methylpyrrolidinium trifluoromethanesulfonate,ABEBwg,CC(C)O,propan-2-ol,AALcwx,CCCC[N+]1(C)CCCC1,O=S(=O)([O-])C(F)(F)F,2,,,,812,False,CCCC[N+]1(C)CCCC1.O=S(=O)([O-])C(F)(F)F,No changes
vRbvi,288.15,101.0,996.1,Vercher et al. (2018),Liquid,0.2002,1-butyl-1-methylpyrrolidinium trifluoromethanesulfonate,,,CCCC[N+]1(C)CCCC1.O=S(=O)([O-])C(F)(F)F,1-butyl-1-methylpyrrolidinium trifluoromethanesulfonate,ABEBwg,CC(C)O,propan-2-ol,AALcwx,CCCC[N+]1(C)CCCC1,O=S(=O)([O-])C(F)(F)F,2,,,,813,False,CCCC[N+]1(C)CCCC1.O=S(=O)([O-])C(F)(F)F,No changes
vRbvi,288.15,101.0,1058.7,Vercher et al. (2018),Liquid,0.3002,1-butyl-1-methylpyrrolidinium trifluoromethanesulfonate,,,CCCC[N+]1(C)CCCC1.O=S(=O)([O-])C(F)(F)F,1-butyl-1-methylpyrrolidinium trifluoromethanesulfonate,ABEBwg,CC(C)O,propan-2-ol,AALcwx,CCCC[N+]1(C)CCCC1,O=S(=O)([O-])C(F)(F)F,2,,,,814,False,CCCC[N+]1(C)CCCC1.O=S(=O)([O-])C(F)(F)F,No changes
vRbvi,288.15,101.0,1106.9,Vercher et al. (2018),Liquid,0.3997,1-butyl-1-methylpyrrolidinium trifluoromethanesulfonate,,,CCCC[N+]1(C)CCCC1.O=S(=O)([O-])C(F)(F)F,1-butyl-1-methylpyrrolidinium trifluoromethanesulfonate,ABEBwg,CC(C)O,propan-2-ol,AALcwx,CCCC[N+]1(C)CCCC1,O=S(=O)([O-])C(F)(F)F,2,,,,815,False,CCCC[N+]1(C)CCCC1.O=S(=O)([O-])C(F)(F)F,No changes
vRbvi,288.15,101.0,1145.3,Vercher et al. (2018),Liquid,0.4996,1-butyl-1-methylpyrrolidinium trifluoromethanesulfonate,,,CCCC[N+]1(C)CCCC1.O=S(=O)([O-])C(F)(F)F,1-butyl-1-methylpyrrolidinium trifluoromethanesulfonate,ABEBwg,CC(C)O,propan-2-ol,AALcwx,CCCC[N+]1(C)CCCC1,O=S(=O)([O-])C(F)(F)F,2,,,,816,False,CCCC[N+]1(C)CCCC1.O=S(=O)([O-])C(F)(F)F,No changes
vRbvi,288.15,101.0,1176.8,Vercher et al. (2018),Liquid,0.6001,1-butyl-1-methylpyrrolidinium trifluoromethanesulfonate,,,CCCC[N+]1(C)CCCC1.O=S(=O)([O-])C(F)(F)F,1-butyl-1-methylpyrrolidinium trifluoromethanesulfonate,ABEBwg,CC(C)O,propan-2-ol,AALcwx,CCCC[N+]1(C)CCCC1,O=S(=O)([O-])C(F)(F)F,2,,,,817,False,CCCC[N+]1(C)CCCC1.O=S(=O)([O-])C(F)(F)F,No changes
vRbvi,288.15,101.0,1202.6,Vercher et al. (2018),Liquid,0.6999,1-butyl-1-methylpyrrolidinium trifluoromethanesulfonate,,,CCCC[N+]1(C)CCCC1.O=S(=O)([O-])C(F)(F)F,1-butyl-1-methylpyrrolidinium trifluoromethanesulfonate,ABEBwg,CC(C)O,propan-2-ol,AALcwx,CCCC[N+]1(C)CCCC1,O=S(=O)([O-])C(F)(F)F,2,,,,818,False,CCCC[N+]1(C)CCCC1.O=S(=O)([O-])C(F)(F)F,No changes
vRbvi,288.15,101.0,1224.9,Vercher et al. (2018),Liquid,0.8015,1-butyl-1-methylpyrrolidinium trifluoromethanesulfonate,,,CCCC[N+]1(C)CCCC1.O=S(=O)([O-])C(F)(F)F,1-butyl-1-methylpyrrolidinium trifluoromethanesulfonate,ABEBwg,CC(C)O,propan-2-ol,AALcwx,CCCC[N+]1(C)CCCC1,O=S(=O)([O-])C(F)(F)F,2,,,,819,False,CCCC[N+]1(C)CCCC1.O=S(=O)([O-])C(F)(F)F,No changes
vRbvi,288.15,101.0,1234.2,Vercher et al. (2018),Liquid,0.8501,1-butyl-1-methylpyrrolidinium trifluoromethanesulfonate,,,CCCC[N+]1(C)CCCC1.O=S(=O)([O-])C(F)(F)F,1-butyl-1-methylpyrrolidinium trifluoromethanesulfonate,ABEBwg,CC(C)O,propan-2-ol,AALcwx,CCCC[N+]1(C)CCCC1,O=S(=O)([O-])C(F)(F)F,2,,,,820,False,CCCC[N+]1(C)CCCC1.O=S(=O)([O-])C(F)(F)F,No changes
vRbvi,288.15,101.0,1243.1,Vercher et al. (2018),Liquid,0.8993,1-butyl-1-methylpyrrolidinium trifluoromethanesulfonate,,,CCCC[N+]1(C)CCCC1.O=S(=O)([O-])C(F)(F)F,1-butyl-1-methylpyrrolidinium trifluoromethanesulfonate,ABEBwg,CC(C)O,propan-2-ol,AALcwx,CCCC[N+]1(C)CCCC1,O=S(=O)([O-])C(F)(F)F,2,,,,821,False,CCCC[N+]1(C)CCCC1.O=S(=O)([O-])C(F)(F)F,No changes