setid,Temperature (K),Pressure (kPa),Density (kg/m3),reference,phases,Mole fraction,Mole fraction of compound name,Weight fraction,Weight fraction of compound name,IL_SMILES,IL_name,IL_ID,Solvent_SMILES,Solvent_name,Solvent_ID,IL_cation_SMILES,IL_anion_SMILES,IL_component_number,Mole fraction of solvent,IL_MW,Solvent_MW,Record_ID,Contains_Metal,Standardized_IL_SMILES,Changes
ZRQpq,303.15,93.2,903.597,Bittencourt et al. (2018),Liquid,0.4483,butylammonium acetate,,,CCCC[NH3+].CC(=O)[O-],butylammonium acetate,AAZfnG,CCO,ethanol,AAIsrh,CCCC[NH3+],CC(=O)[O-],2,,,,2292,False,CCCC[NH3+].CC(=O)[O-],No changes
ZRQpq,303.15,93.2,910.676,Bittencourt et al. (2018),Liquid,0.4987,butylammonium acetate,,,CCCC[NH3+].CC(=O)[O-],butylammonium acetate,AAZfnG,CCO,ethanol,AAIsrh,CCCC[NH3+],CC(=O)[O-],2,,,,2293,False,CCCC[NH3+].CC(=O)[O-],No changes
ZRQpq,303.15,93.2,917.244,Bittencourt et al. (2018),Liquid,0.5503,butylammonium acetate,,,CCCC[NH3+].CC(=O)[O-],butylammonium acetate,AAZfnG,CCO,ethanol,AAIsrh,CCCC[NH3+],CC(=O)[O-],2,,,,2294,False,CCCC[NH3+].CC(=O)[O-],No changes
ZRQpq,303.15,93.2,923.046,Bittencourt et al. (2018),Liquid,0.6002,butylammonium acetate,,,CCCC[NH3+].CC(=O)[O-],butylammonium acetate,AAZfnG,CCO,ethanol,AAIsrh,CCCC[NH3+],CC(=O)[O-],2,,,,2295,False,CCCC[NH3+].CC(=O)[O-],No changes
ZRQpq,303.15,93.2,928.497,Bittencourt et al. (2018),Liquid,0.6511,butylammonium acetate,,,CCCC[NH3+].CC(=O)[O-],butylammonium acetate,AAZfnG,CCO,ethanol,AAIsrh,CCCC[NH3+],CC(=O)[O-],2,,,,2296,False,CCCC[NH3+].CC(=O)[O-],No changes
ZRQpq,303.15,93.2,933.416,Bittencourt et al. (2018),Liquid,0.7008,butylammonium acetate,,,CCCC[NH3+].CC(=O)[O-],butylammonium acetate,AAZfnG,CCO,ethanol,AAIsrh,CCCC[NH3+],CC(=O)[O-],2,,,,2297,False,CCCC[NH3+].CC(=O)[O-],No changes
ZRQpq,303.15,93.2,937.856,Bittencourt et al. (2018),Liquid,0.7495,butylammonium acetate,,,CCCC[NH3+].CC(=O)[O-],butylammonium acetate,AAZfnG,CCO,ethanol,AAIsrh,CCCC[NH3+],CC(=O)[O-],2,,,,2298,False,CCCC[NH3+].CC(=O)[O-],No changes
ZRQpq,303.15,93.2,942.119,Bittencourt et al. (2018),Liquid,0.7988,butylammonium acetate,,,CCCC[NH3+].CC(=O)[O-],butylammonium acetate,AAZfnG,CCO,ethanol,AAIsrh,CCCC[NH3+],CC(=O)[O-],2,,,,2299,False,CCCC[NH3+].CC(=O)[O-],No changes
ZRQpq,303.15,93.2,946.073,Bittencourt et al. (2018),Liquid,0.8496,butylammonium acetate,,,CCCC[NH3+].CC(=O)[O-],butylammonium acetate,AAZfnG,CCO,ethanol,AAIsrh,CCCC[NH3+],CC(=O)[O-],2,,,,2300,False,CCCC[NH3+].CC(=O)[O-],No changes
ZRQpq,303.15,93.2,949.893,Bittencourt et al. (2018),Liquid,0.9015,butylammonium acetate,,,CCCC[NH3+].CC(=O)[O-],butylammonium acetate,AAZfnG,CCO,ethanol,AAIsrh,CCCC[NH3+],CC(=O)[O-],2,,,,2301,False,CCCC[NH3+].CC(=O)[O-],No changes
ZRQpq,303.15,93.2,953.173,Bittencourt et al. (2018),Liquid,0.9493,butylammonium acetate,,,CCCC[NH3+].CC(=O)[O-],butylammonium acetate,AAZfnG,CCO,ethanol,AAIsrh,CCCC[NH3+],CC(=O)[O-],2,,,,2302,False,CCCC[NH3+].CC(=O)[O-],No changes
ZRQpq,303.15,93.2,956.492,Bittencourt et al. (2018),Liquid,1.0,butylammonium acetate,,,CCCC[NH3+].CC(=O)[O-],butylammonium acetate,AAZfnG,CCO,ethanol,AAIsrh,CCCC[NH3+],CC(=O)[O-],2,,,,2303,False,CCCC[NH3+].CC(=O)[O-],No changes
ZRQpq,308.15,93.2,800.8,Bittencourt et al. (2018),Liquid,0.0501,butylammonium acetate,,,CCCC[NH3+].CC(=O)[O-],butylammonium acetate,AAZfnG,CCO,ethanol,AAIsrh,CCCC[NH3+],CC(=O)[O-],2,,,,2304,False,CCCC[NH3+].CC(=O)[O-],No changes
ZRQpq,308.15,93.2,820.0,Bittencourt et al. (2018),Liquid,0.0992,butylammonium acetate,,,CCCC[NH3+].CC(=O)[O-],butylammonium acetate,AAZfnG,CCO,ethanol,AAIsrh,CCCC[NH3+],CC(=O)[O-],2,,,,2305,False,CCCC[NH3+].CC(=O)[O-],No changes
ZRQpq,308.15,93.2,836.8,Bittencourt et al. (2018),Liquid,0.15,butylammonium acetate,,,CCCC[NH3+].CC(=O)[O-],butylammonium acetate,AAZfnG,CCO,ethanol,AAIsrh,CCCC[NH3+],CC(=O)[O-],2,,,,2306,False,CCCC[NH3+].CC(=O)[O-],No changes
ZRQpq,308.15,93.2,851.0,Bittencourt et al. (2018),Liquid,0.2001,butylammonium acetate,,,CCCC[NH3+].CC(=O)[O-],butylammonium acetate,AAZfnG,CCO,ethanol,AAIsrh,CCCC[NH3+],CC(=O)[O-],2,,,,2307,False,CCCC[NH3+].CC(=O)[O-],No changes
ZRQpq,308.15,93.2,863.5,Bittencourt et al. (2018),Liquid,0.2511,butylammonium acetate,,,CCCC[NH3+].CC(=O)[O-],butylammonium acetate,AAZfnG,CCO,ethanol,AAIsrh,CCCC[NH3+],CC(=O)[O-],2,,,,2308,False,CCCC[NH3+].CC(=O)[O-],No changes
ZRQpq,308.15,93.2,874.2,Bittencourt et al. (2018),Liquid,0.3001,butylammonium acetate,,,CCCC[NH3+].CC(=O)[O-],butylammonium acetate,AAZfnG,CCO,ethanol,AAIsrh,CCCC[NH3+],CC(=O)[O-],2,,,,2309,False,CCCC[NH3+].CC(=O)[O-],No changes
ZRQpq,308.15,93.2,883.9,Bittencourt et al. (2018),Liquid,0.35,butylammonium acetate,,,CCCC[NH3+].CC(=O)[O-],butylammonium acetate,AAZfnG,CCO,ethanol,AAIsrh,CCCC[NH3+],CC(=O)[O-],2,,,,2310,False,CCCC[NH3+].CC(=O)[O-],No changes
ZRQpq,308.15,93.2,892.6,Bittencourt et al. (2018),Liquid,0.3999,butylammonium acetate,,,CCCC[NH3+].CC(=O)[O-],butylammonium acetate,AAZfnG,CCO,ethanol,AAIsrh,CCCC[NH3+],CC(=O)[O-],2,,,,2311,False,CCCC[NH3+].CC(=O)[O-],No changes
ZRQpq,308.15,93.2,900.097,Bittencourt et al. (2018),Liquid,0.4483,butylammonium acetate,,,CCCC[NH3+].CC(=O)[O-],butylammonium acetate,AAZfnG,CCO,ethanol,AAIsrh,CCCC[NH3+],CC(=O)[O-],2,,,,2312,False,CCCC[NH3+].CC(=O)[O-],No changes
ZRQpq,308.15,93.2,907.224,Bittencourt et al. (2018),Liquid,0.4987,butylammonium acetate,,,CCCC[NH3+].CC(=O)[O-],butylammonium acetate,AAZfnG,CCO,ethanol,AAIsrh,CCCC[NH3+],CC(=O)[O-],2,,,,2313,False,CCCC[NH3+].CC(=O)[O-],No changes
ZRQpq,308.15,93.2,913.83,Bittencourt et al. (2018),Liquid,0.5503,butylammonium acetate,,,CCCC[NH3+].CC(=O)[O-],butylammonium acetate,AAZfnG,CCO,ethanol,AAIsrh,CCCC[NH3+],CC(=O)[O-],2,,,,2314,False,CCCC[NH3+].CC(=O)[O-],No changes
ZRQpq,308.15,93.2,919.666,Bittencourt et al. (2018),Liquid,0.6002,butylammonium acetate,,,CCCC[NH3+].CC(=O)[O-],butylammonium acetate,AAZfnG,CCO,ethanol,AAIsrh,CCCC[NH3+],CC(=O)[O-],2,,,,2315,False,CCCC[NH3+].CC(=O)[O-],No changes
ZRQpq,308.15,93.2,925.146,Bittencourt et al. (2018),Liquid,0.6511,butylammonium acetate,,,CCCC[NH3+].CC(=O)[O-],butylammonium acetate,AAZfnG,CCO,ethanol,AAIsrh,CCCC[NH3+],CC(=O)[O-],2,,,,2316,False,CCCC[NH3+].CC(=O)[O-],No changes
ZRQpq,308.15,93.2,930.097,Bittencourt et al. (2018),Liquid,0.7008,butylammonium acetate,,,CCCC[NH3+].CC(=O)[O-],butylammonium acetate,AAZfnG,CCO,ethanol,AAIsrh,CCCC[NH3+],CC(=O)[O-],2,,,,2317,False,CCCC[NH3+].CC(=O)[O-],No changes
ZRQpq,308.15,93.2,934.564,Bittencourt et al. (2018),Liquid,0.7495,butylammonium acetate,,,CCCC[NH3+].CC(=O)[O-],butylammonium acetate,AAZfnG,CCO,ethanol,AAIsrh,CCCC[NH3+],CC(=O)[O-],2,,,,2318,False,CCCC[NH3+].CC(=O)[O-],No changes
ZRQpq,308.15,93.2,938.857,Bittencourt et al. (2018),Liquid,0.7988,butylammonium acetate,,,CCCC[NH3+].CC(=O)[O-],butylammonium acetate,AAZfnG,CCO,ethanol,AAIsrh,CCCC[NH3+],CC(=O)[O-],2,,,,2319,False,CCCC[NH3+].CC(=O)[O-],No changes
ZRQpq,308.15,93.2,942.846,Bittencourt et al. (2018),Liquid,0.8496,butylammonium acetate,,,CCCC[NH3+].CC(=O)[O-],butylammonium acetate,AAZfnG,CCO,ethanol,AAIsrh,CCCC[NH3+],CC(=O)[O-],2,,,,2320,False,CCCC[NH3+].CC(=O)[O-],No changes
ZRQpq,308.15,93.2,946.696,Bittencourt et al. (2018),Liquid,0.9015,butylammonium acetate,,,CCCC[NH3+].CC(=O)[O-],butylammonium acetate,AAZfnG,CCO,ethanol,AAIsrh,CCCC[NH3+],CC(=O)[O-],2,,,,2321,False,CCCC[NH3+].CC(=O)[O-],No changes
ZRQpq,308.15,93.2,949.996,Bittencourt et al. (2018),Liquid,0.9493,butylammonium acetate,,,CCCC[NH3+].CC(=O)[O-],butylammonium acetate,AAZfnG,CCO,ethanol,AAIsrh,CCCC[NH3+],CC(=O)[O-],2,,,,2322,False,CCCC[NH3+].CC(=O)[O-],No changes
ZRQpq,308.15,93.2,953.321,Bittencourt et al. (2018),Liquid,1.0,butylammonium acetate,,,CCCC[NH3+].CC(=O)[O-],butylammonium acetate,AAZfnG,CCO,ethanol,AAIsrh,CCCC[NH3+],CC(=O)[O-],2,,,,2323,False,CCCC[NH3+].CC(=O)[O-],No changes
ZRQpq,313.15,93.2,796.6,Bittencourt et al. (2018),Liquid,0.0501,butylammonium acetate,,,CCCC[NH3+].CC(=O)[O-],butylammonium acetate,AAZfnG,CCO,ethanol,AAIsrh,CCCC[NH3+],CC(=O)[O-],2,,,,2324,False,CCCC[NH3+].CC(=O)[O-],No changes
ZRQpq,313.15,93.2,816.0,Bittencourt et al. (2018),Liquid,0.0992,butylammonium acetate,,,CCCC[NH3+].CC(=O)[O-],butylammonium acetate,AAZfnG,CCO,ethanol,AAIsrh,CCCC[NH3+],CC(=O)[O-],2,,,,2325,False,CCCC[NH3+].CC(=O)[O-],No changes
ZRQpq,313.15,93.2,832.8,Bittencourt et al. (2018),Liquid,0.15,butylammonium acetate,,,CCCC[NH3+].CC(=O)[O-],butylammonium acetate,AAZfnG,CCO,ethanol,AAIsrh,CCCC[NH3+],CC(=O)[O-],2,,,,2326,False,CCCC[NH3+].CC(=O)[O-],No changes
ZRQpq,313.15,93.2,847.2,Bittencourt et al. (2018),Liquid,0.2001,butylammonium acetate,,,CCCC[NH3+].CC(=O)[O-],butylammonium acetate,AAZfnG,CCO,ethanol,AAIsrh,CCCC[NH3+],CC(=O)[O-],2,,,,2327,False,CCCC[NH3+].CC(=O)[O-],No changes
ZRQpq,313.15,93.2,859.8,Bittencourt et al. (2018),Liquid,0.2511,butylammonium acetate,,,CCCC[NH3+].CC(=O)[O-],butylammonium acetate,AAZfnG,CCO,ethanol,AAIsrh,CCCC[NH3+],CC(=O)[O-],2,,,,2328,False,CCCC[NH3+].CC(=O)[O-],No changes
ZRQpq,313.15,93.2,870.6,Bittencourt et al. (2018),Liquid,0.3001,butylammonium acetate,,,CCCC[NH3+].CC(=O)[O-],butylammonium acetate,AAZfnG,CCO,ethanol,AAIsrh,CCCC[NH3+],CC(=O)[O-],2,,,,2329,False,CCCC[NH3+].CC(=O)[O-],No changes
ZRQpq,313.15,93.2,880.3,Bittencourt et al. (2018),Liquid,0.35,butylammonium acetate,,,CCCC[NH3+].CC(=O)[O-],butylammonium acetate,AAZfnG,CCO,ethanol,AAIsrh,CCCC[NH3+],CC(=O)[O-],2,,,,2330,False,CCCC[NH3+].CC(=O)[O-],No changes
ZRQpq,313.15,93.2,889.1,Bittencourt et al. (2018),Liquid,0.3999,butylammonium acetate,,,CCCC[NH3+].CC(=O)[O-],butylammonium acetate,AAZfnG,CCO,ethanol,AAIsrh,CCCC[NH3+],CC(=O)[O-],2,,,,2331,False,CCCC[NH3+].CC(=O)[O-],No changes
ZRQpq,313.15,93.2,896.587,Bittencourt et al. (2018),Liquid,0.4483,butylammonium acetate,,,CCCC[NH3+].CC(=O)[O-],butylammonium acetate,AAZfnG,CCO,ethanol,AAIsrh,CCCC[NH3+],CC(=O)[O-],2,,,,2332,False,CCCC[NH3+].CC(=O)[O-],No changes
ZRQpq,313.15,93.2,903.761,Bittencourt et al. (2018),Liquid,0.4987,butylammonium acetate,,,CCCC[NH3+].CC(=O)[O-],butylammonium acetate,AAZfnG,CCO,ethanol,AAIsrh,CCCC[NH3+],CC(=O)[O-],2,,,,2333,False,CCCC[NH3+].CC(=O)[O-],No changes
ZRQpq,313.15,93.2,910.416,Bittencourt et al. (2018),Liquid,0.5503,butylammonium acetate,,,CCCC[NH3+].CC(=O)[O-],butylammonium acetate,AAZfnG,CCO,ethanol,AAIsrh,CCCC[NH3+],CC(=O)[O-],2,,,,2334,False,CCCC[NH3+].CC(=O)[O-],No changes
ZRQpq,313.15,93.2,916.285,Bittencourt et al. (2018),Liquid,0.6002,butylammonium acetate,,,CCCC[NH3+].CC(=O)[O-],butylammonium acetate,AAZfnG,CCO,ethanol,AAIsrh,CCCC[NH3+],CC(=O)[O-],2,,,,2335,False,CCCC[NH3+].CC(=O)[O-],No changes
ZRQpq,313.15,93.2,921.79,Bittencourt et al. (2018),Liquid,0.6511,butylammonium acetate,,,CCCC[NH3+].CC(=O)[O-],butylammonium acetate,AAZfnG,CCO,ethanol,AAIsrh,CCCC[NH3+],CC(=O)[O-],2,,,,2336,False,CCCC[NH3+].CC(=O)[O-],No changes
ZRQpq,313.15,93.2,926.775,Bittencourt et al. (2018),Liquid,0.7008,butylammonium acetate,,,CCCC[NH3+].CC(=O)[O-],butylammonium acetate,AAZfnG,CCO,ethanol,AAIsrh,CCCC[NH3+],CC(=O)[O-],2,,,,2337,False,CCCC[NH3+].CC(=O)[O-],No changes
ZRQpq,313.15,93.2,931.259,Bittencourt et al. (2018),Liquid,0.7495,butylammonium acetate,,,CCCC[NH3+].CC(=O)[O-],butylammonium acetate,AAZfnG,CCO,ethanol,AAIsrh,CCCC[NH3+],CC(=O)[O-],2,,,,2338,False,CCCC[NH3+].CC(=O)[O-],No changes
ZRQpq,313.15,93.2,935.592,Bittencourt et al. (2018),Liquid,0.7988,butylammonium acetate,,,CCCC[NH3+].CC(=O)[O-],butylammonium acetate,AAZfnG,CCO,ethanol,AAIsrh,CCCC[NH3+],CC(=O)[O-],2,,,,2339,False,CCCC[NH3+].CC(=O)[O-],No changes
ZRQpq,313.15,93.2,939.614,Bittencourt et al. (2018),Liquid,0.8496,butylammonium acetate,,,CCCC[NH3+].CC(=O)[O-],butylammonium acetate,AAZfnG,CCO,ethanol,AAIsrh,CCCC[NH3+],CC(=O)[O-],2,,,,2340,False,CCCC[NH3+].CC(=O)[O-],No changes
ZRQpq,313.15,93.2,943.49,Bittencourt et al. (2018),Liquid,0.9015,butylammonium acetate,,,CCCC[NH3+].CC(=O)[O-],butylammonium acetate,AAZfnG,CCO,ethanol,AAIsrh,CCCC[NH3+],CC(=O)[O-],2,,,,2341,False,CCCC[NH3+].CC(=O)[O-],No changes
ZRQpq,313.15,93.2,946.824,Bittencourt et al. (2018),Liquid,0.9493,butylammonium acetate,,,CCCC[NH3+].CC(=O)[O-],butylammonium acetate,AAZfnG,CCO,ethanol,AAIsrh,CCCC[NH3+],CC(=O)[O-],2,,,,2342,False,CCCC[NH3+].CC(=O)[O-],No changes
ZRQpq,313.15,93.2,950.169,Bittencourt et al. (2018),Liquid,1.0,butylammonium acetate,,,CCCC[NH3+].CC(=O)[O-],butylammonium acetate,AAZfnG,CCO,ethanol,AAIsrh,CCCC[NH3+],CC(=O)[O-],2,,,,2343,False,CCCC[NH3+].CC(=O)[O-],No changes
NaCIJ,298.15,101.0,855.8,Segade et al. (2016),Liquid,0.1024,n-butylammonium nitrate,,,CCCC[NH3+].O=[N+]([O-])[O-],n-butylammonium nitrate,AAaJgU,CCO,ethanol,AAIsrh,CCCC[NH3+],O=[N+]([O-])[O-],2,,,,2344,False,CCCC[NH3+].O=[N+]([O-])[O-],No changes
NaCIJ,298.15,101.0,887.8,Segade et al. (2016),Liquid,0.1616,n-butylammonium nitrate,,,CCCC[NH3+].O=[N+]([O-])[O-],n-butylammonium nitrate,AAaJgU,CCO,ethanol,AAIsrh,CCCC[NH3+],O=[N+]([O-])[O-],2,,,,2345,False,CCCC[NH3+].O=[N+]([O-])[O-],No changes
NaCIJ,298.15,101.0,909.9,Segade et al. (2016),Liquid,0.2075,n-butylammonium nitrate,,,CCCC[NH3+].O=[N+]([O-])[O-],n-butylammonium nitrate,AAaJgU,CCO,ethanol,AAIsrh,CCCC[NH3+],O=[N+]([O-])[O-],2,,,,2346,False,CCCC[NH3+].O=[N+]([O-])[O-],No changes
NaCIJ,298.15,101.0,927.4,Segade et al. (2016),Liquid,0.2474,n-butylammonium nitrate,,,CCCC[NH3+].O=[N+]([O-])[O-],n-butylammonium nitrate,AAaJgU,CCO,ethanol,AAIsrh,CCCC[NH3+],O=[N+]([O-])[O-],2,,,,2347,False,CCCC[NH3+].O=[N+]([O-])[O-],No changes
NaCIJ,298.15,101.0,961.5,Segade et al. (2016),Liquid,0.3341,n-butylammonium nitrate,,,CCCC[NH3+].O=[N+]([O-])[O-],n-butylammonium nitrate,AAaJgU,CCO,ethanol,AAIsrh,CCCC[NH3+],O=[N+]([O-])[O-],2,,,,2348,False,CCCC[NH3+].O=[N+]([O-])[O-],No changes
NaCIJ,298.15,101.0,989.8,Segade et al. (2016),Liquid,0.4225,n-butylammonium nitrate,,,CCCC[NH3+].O=[N+]([O-])[O-],n-butylammonium nitrate,AAaJgU,CCO,ethanol,AAIsrh,CCCC[NH3+],O=[N+]([O-])[O-],2,,,,2349,False,CCCC[NH3+].O=[N+]([O-])[O-],No changes
NaCIJ,298.15,101.0,1024.8,Segade et al. (2016),Liquid,0.5518,n-butylammonium nitrate,,,CCCC[NH3+].O=[N+]([O-])[O-],n-butylammonium nitrate,AAaJgU,CCO,ethanol,AAIsrh,CCCC[NH3+],O=[N+]([O-])[O-],2,,,,2350,False,CCCC[NH3+].O=[N+]([O-])[O-],No changes
NaCIJ,298.15,101.0,1048.9,Segade et al. (2016),Liquid,0.6588,n-butylammonium nitrate,,,CCCC[NH3+].O=[N+]([O-])[O-],n-butylammonium nitrate,AAaJgU,CCO,ethanol,AAIsrh,CCCC[NH3+],O=[N+]([O-])[O-],2,,,,2351,False,CCCC[NH3+].O=[N+]([O-])[O-],No changes
NaCIJ,298.15,101.0,1073.9,Segade et al. (2016),Liquid,0.7909,n-butylammonium nitrate,,,CCCC[NH3+].O=[N+]([O-])[O-],n-butylammonium nitrate,AAaJgU,CCO,ethanol,AAIsrh,CCCC[NH3+],O=[N+]([O-])[O-],2,,,,2352,False,CCCC[NH3+].O=[N+]([O-])[O-],No changes
pYeve,298.15,101.0,1237.6,Gomez et al. (2006c),Liquid,1.0,ethanol,,,CC[n+]1ccn(C)c1.CCOS(=O)(=O)[O-],1-ethyl-3-methylimidazolium ethyl sulfate,AAtWDT,CCO,ethanol,AAIsrh,CC[n+]1ccn(C)c1,CCOS(=O)(=O)[O-],2,0.0,,,2353,False,CC[n+]1ccn(C)c1.CCOS(=O)(=O)[O-],No changes
pYeve,298.15,101.0,1228.9,Gomez et al. (2006c),Liquid,0.9377,ethanol,,,CC[n+]1ccn(C)c1.CCOS(=O)(=O)[O-],1-ethyl-3-methylimidazolium ethyl sulfate,AAtWDT,CCO,ethanol,AAIsrh,CC[n+]1ccn(C)c1,CCOS(=O)(=O)[O-],2,0.0623,,,2354,False,CC[n+]1ccn(C)c1.CCOS(=O)(=O)[O-],No changes
pYeve,298.15,101.0,1201.3,Gomez et al. (2006c),Liquid,0.77,ethanol,,,CC[n+]1ccn(C)c1.CCOS(=O)(=O)[O-],1-ethyl-3-methylimidazolium ethyl sulfate,AAtWDT,CCO,ethanol,AAIsrh,CC[n+]1ccn(C)c1,CCOS(=O)(=O)[O-],2,0.23,,,2355,False,CC[n+]1ccn(C)c1.CCOS(=O)(=O)[O-],No changes
pYeve,298.15,101.0,1161.68,Gomez et al. (2006c),Liquid,0.5887,ethanol,,,CC[n+]1ccn(C)c1.CCOS(=O)(=O)[O-],1-ethyl-3-methylimidazolium ethyl sulfate,AAtWDT,CCO,ethanol,AAIsrh,CC[n+]1ccn(C)c1,CCOS(=O)(=O)[O-],2,0.4113,,,2356,False,CC[n+]1ccn(C)c1.CCOS(=O)(=O)[O-],No changes
pYeve,298.15,101.0,1123.63,Gomez et al. (2006c),Liquid,0.4607,ethanol,,,CC[n+]1ccn(C)c1.CCOS(=O)(=O)[O-],1-ethyl-3-methylimidazolium ethyl sulfate,AAtWDT,CCO,ethanol,AAIsrh,CC[n+]1ccn(C)c1,CCOS(=O)(=O)[O-],2,0.5393,,,2357,False,CC[n+]1ccn(C)c1.CCOS(=O)(=O)[O-],No changes
pYeve,298.15,101.0,1066.7,Gomez et al. (2006c),Liquid,0.3212,ethanol,,,CC[n+]1ccn(C)c1.CCOS(=O)(=O)[O-],1-ethyl-3-methylimidazolium ethyl sulfate,AAtWDT,CCO,ethanol,AAIsrh,CC[n+]1ccn(C)c1,CCOS(=O)(=O)[O-],2,0.6788,,,2358,False,CC[n+]1ccn(C)c1.CCOS(=O)(=O)[O-],No changes
pYeve,298.15,101.0,1017.9,Gomez et al. (2006c),Liquid,0.2338,ethanol,,,CC[n+]1ccn(C)c1.CCOS(=O)(=O)[O-],1-ethyl-3-methylimidazolium ethyl sulfate,AAtWDT,CCO,ethanol,AAIsrh,CC[n+]1ccn(C)c1,CCOS(=O)(=O)[O-],2,0.7662,,,2359,False,CC[n+]1ccn(C)c1.CCOS(=O)(=O)[O-],No changes
pYeve,298.15,101.0,973.0,Gomez et al. (2006c),Liquid,0.1696999999999999,ethanol,,,CC[n+]1ccn(C)c1.CCOS(=O)(=O)[O-],1-ethyl-3-methylimidazolium ethyl sulfate,AAtWDT,CCO,ethanol,AAIsrh,CC[n+]1ccn(C)c1,CCOS(=O)(=O)[O-],2,0.8303,,,2360,False,CC[n+]1ccn(C)c1.CCOS(=O)(=O)[O-],No changes
pYeve,298.15,101.0,848.6,Gomez et al. (2006c),Liquid,0.0445999999999999,ethanol,,,CC[n+]1ccn(C)c1.CCOS(=O)(=O)[O-],1-ethyl-3-methylimidazolium ethyl sulfate,AAtWDT,CCO,ethanol,AAIsrh,CC[n+]1ccn(C)c1,CCOS(=O)(=O)[O-],2,0.9554,,,2361,False,CC[n+]1ccn(C)c1.CCOS(=O)(=O)[O-],No changes
pYeve,298.15,101.0,837.4,Gomez et al. (2006c),Liquid,0.036,ethanol,,,CC[n+]1ccn(C)c1.CCOS(=O)(=O)[O-],1-ethyl-3-methylimidazolium ethyl sulfate,AAtWDT,CCO,ethanol,AAIsrh,CC[n+]1ccn(C)c1,CCOS(=O)(=O)[O-],2,0.964,,,2362,False,CC[n+]1ccn(C)c1.CCOS(=O)(=O)[O-],No changes
pYeve,298.15,101.0,806.1,Gomez et al. (2006c),Liquid,0.0137,ethanol,,,CC[n+]1ccn(C)c1.CCOS(=O)(=O)[O-],1-ethyl-3-methylimidazolium ethyl sulfate,AAtWDT,CCO,ethanol,AAIsrh,CC[n+]1ccn(C)c1,CCOS(=O)(=O)[O-],2,0.9863,,,2363,False,CC[n+]1ccn(C)c1.CCOS(=O)(=O)[O-],No changes
pYeve,298.15,101.0,785.46,Gomez et al. (2006c),Liquid,0.0,ethanol,,,CC[n+]1ccn(C)c1.CCOS(=O)(=O)[O-],1-ethyl-3-methylimidazolium ethyl sulfate,AAtWDT,CCO,ethanol,AAIsrh,CC[n+]1ccn(C)c1,CCOS(=O)(=O)[O-],2,1.0,,,2364,False,CC[n+]1ccn(C)c1.CCOS(=O)(=O)[O-],No changes
pYeve,313.15,101.0,1227.5,Gomez et al. (2006c),Liquid,1.0,ethanol,,,CC[n+]1ccn(C)c1.CCOS(=O)(=O)[O-],1-ethyl-3-methylimidazolium ethyl sulfate,AAtWDT,CCO,ethanol,AAIsrh,CC[n+]1ccn(C)c1,CCOS(=O)(=O)[O-],2,0.0,,,2365,False,CC[n+]1ccn(C)c1.CCOS(=O)(=O)[O-],No changes
pYeve,313.15,101.0,1218.9,Gomez et al. (2006c),Liquid,0.9377,ethanol,,,CC[n+]1ccn(C)c1.CCOS(=O)(=O)[O-],1-ethyl-3-methylimidazolium ethyl sulfate,AAtWDT,CCO,ethanol,AAIsrh,CC[n+]1ccn(C)c1,CCOS(=O)(=O)[O-],2,0.0623,,,2366,False,CC[n+]1ccn(C)c1.CCOS(=O)(=O)[O-],No changes
pYeve,313.15,101.0,1191.2,Gomez et al. (2006c),Liquid,0.77,ethanol,,,CC[n+]1ccn(C)c1.CCOS(=O)(=O)[O-],1-ethyl-3-methylimidazolium ethyl sulfate,AAtWDT,CCO,ethanol,AAIsrh,CC[n+]1ccn(C)c1,CCOS(=O)(=O)[O-],2,0.23,,,2367,False,CC[n+]1ccn(C)c1.CCOS(=O)(=O)[O-],No changes
pYeve,313.15,101.0,1151.32,Gomez et al. (2006c),Liquid,0.5887,ethanol,,,CC[n+]1ccn(C)c1.CCOS(=O)(=O)[O-],1-ethyl-3-methylimidazolium ethyl sulfate,AAtWDT,CCO,ethanol,AAIsrh,CC[n+]1ccn(C)c1,CCOS(=O)(=O)[O-],2,0.4113,,,2368,False,CC[n+]1ccn(C)c1.CCOS(=O)(=O)[O-],No changes
pYeve,313.15,101.0,1113.0,Gomez et al. (2006c),Liquid,0.4607,ethanol,,,CC[n+]1ccn(C)c1.CCOS(=O)(=O)[O-],1-ethyl-3-methylimidazolium ethyl sulfate,AAtWDT,CCO,ethanol,AAIsrh,CC[n+]1ccn(C)c1,CCOS(=O)(=O)[O-],2,0.5393,,,2369,False,CC[n+]1ccn(C)c1.CCOS(=O)(=O)[O-],No changes
pYeve,313.15,101.0,1055.7,Gomez et al. (2006c),Liquid,0.3212,ethanol,,,CC[n+]1ccn(C)c1.CCOS(=O)(=O)[O-],1-ethyl-3-methylimidazolium ethyl sulfate,AAtWDT,CCO,ethanol,AAIsrh,CC[n+]1ccn(C)c1,CCOS(=O)(=O)[O-],2,0.6788,,,2370,False,CC[n+]1ccn(C)c1.CCOS(=O)(=O)[O-],No changes
pYeve,313.15,101.0,1006.6,Gomez et al. (2006c),Liquid,0.2338,ethanol,,,CC[n+]1ccn(C)c1.CCOS(=O)(=O)[O-],1-ethyl-3-methylimidazolium ethyl sulfate,AAtWDT,CCO,ethanol,AAIsrh,CC[n+]1ccn(C)c1,CCOS(=O)(=O)[O-],2,0.7662,,,2371,False,CC[n+]1ccn(C)c1.CCOS(=O)(=O)[O-],No changes
pYeve,313.15,101.0,961.3,Gomez et al. (2006c),Liquid,0.1696999999999999,ethanol,,,CC[n+]1ccn(C)c1.CCOS(=O)(=O)[O-],1-ethyl-3-methylimidazolium ethyl sulfate,AAtWDT,CCO,ethanol,AAIsrh,CC[n+]1ccn(C)c1,CCOS(=O)(=O)[O-],2,0.8303,,,2372,False,CC[n+]1ccn(C)c1.CCOS(=O)(=O)[O-],No changes