setid,Temperature (K),Pressure (kPa),Density (kg/m3),reference,phases,Mole fraction,Mole fraction of compound name,Weight fraction,Weight fraction of compound name,IL_SMILES,IL_name,IL_ID,Solvent_SMILES,Solvent_name,Solvent_ID,IL_cation_SMILES,IL_anion_SMILES,IL_component_number,Mole fraction of solvent,IL_MW,Solvent_MW,Record_ID,Contains_Metal,Standardized_IL_SMILES,Changes
YLObv,303.15,100.0,1108.0,Krolikowska et al. (2023),Liquid,0.4031,"1,3-dimethylimidazolium dimethyl phosphate",,,Cn1cc[n+](C)c1.COP(=O)([O-])OC,"1,3-dimethylimidazolium dimethyl phosphate",AAqlaB,CCO,ethanol,AAIsrh,Cn1cc[n+](C)c1,COP(=O)([O-])OC,2,,,,529,False,Cn1cc[n+](C)c1.COP(=O)([O-])OC,No changes
YLObv,303.15,100.0,1144.0,Krolikowska et al. (2023),Liquid,0.4996,"1,3-dimethylimidazolium dimethyl phosphate",,,Cn1cc[n+](C)c1.COP(=O)([O-])OC,"1,3-dimethylimidazolium dimethyl phosphate",AAqlaB,CCO,ethanol,AAIsrh,Cn1cc[n+](C)c1,COP(=O)([O-])OC,2,,,,530,False,Cn1cc[n+](C)c1.COP(=O)([O-])OC,No changes
YLObv,303.15,100.0,1175.0,Krolikowska et al. (2023),Liquid,0.6043,"1,3-dimethylimidazolium dimethyl phosphate",,,Cn1cc[n+](C)c1.COP(=O)([O-])OC,"1,3-dimethylimidazolium dimethyl phosphate",AAqlaB,CCO,ethanol,AAIsrh,Cn1cc[n+](C)c1,COP(=O)([O-])OC,2,,,,531,False,Cn1cc[n+](C)c1.COP(=O)([O-])OC,No changes
YLObv,303.15,100.0,1199.0,Krolikowska et al. (2023),Liquid,0.7009,"1,3-dimethylimidazolium dimethyl phosphate",,,Cn1cc[n+](C)c1.COP(=O)([O-])OC,"1,3-dimethylimidazolium dimethyl phosphate",AAqlaB,CCO,ethanol,AAIsrh,Cn1cc[n+](C)c1,COP(=O)([O-])OC,2,,,,532,False,Cn1cc[n+](C)c1.COP(=O)([O-])OC,No changes
YLObv,303.15,100.0,1220.0,Krolikowska et al. (2023),Liquid,0.797,"1,3-dimethylimidazolium dimethyl phosphate",,,Cn1cc[n+](C)c1.COP(=O)([O-])OC,"1,3-dimethylimidazolium dimethyl phosphate",AAqlaB,CCO,ethanol,AAIsrh,Cn1cc[n+](C)c1,COP(=O)([O-])OC,2,,,,533,False,Cn1cc[n+](C)c1.COP(=O)([O-])OC,No changes
YLObv,303.15,100.0,1237.0,Krolikowska et al. (2023),Liquid,0.8995,"1,3-dimethylimidazolium dimethyl phosphate",,,Cn1cc[n+](C)c1.COP(=O)([O-])OC,"1,3-dimethylimidazolium dimethyl phosphate",AAqlaB,CCO,ethanol,AAIsrh,Cn1cc[n+](C)c1,COP(=O)([O-])OC,2,,,,534,False,Cn1cc[n+](C)c1.COP(=O)([O-])OC,No changes
YLObv,303.15,100.0,1253.0,Krolikowska et al. (2023),Liquid,1.0,"1,3-dimethylimidazolium dimethyl phosphate",,,Cn1cc[n+](C)c1.COP(=O)([O-])OC,"1,3-dimethylimidazolium dimethyl phosphate",AAqlaB,CCO,ethanol,AAIsrh,Cn1cc[n+](C)c1,COP(=O)([O-])OC,2,,,,535,False,Cn1cc[n+](C)c1.COP(=O)([O-])OC,No changes
YLObv,308.15,100.0,777.0,Krolikowska et al. (2023),Liquid,0.0,"1,3-dimethylimidazolium dimethyl phosphate",,,Cn1cc[n+](C)c1.COP(=O)([O-])OC,"1,3-dimethylimidazolium dimethyl phosphate",AAqlaB,CCO,ethanol,AAIsrh,Cn1cc[n+](C)c1,COP(=O)([O-])OC,2,,,,536,False,Cn1cc[n+](C)c1.COP(=O)([O-])OC,No changes
YLObv,308.15,100.0,808.0,Krolikowska et al. (2023),Liquid,0.0201,"1,3-dimethylimidazolium dimethyl phosphate",,,Cn1cc[n+](C)c1.COP(=O)([O-])OC,"1,3-dimethylimidazolium dimethyl phosphate",AAqlaB,CCO,ethanol,AAIsrh,Cn1cc[n+](C)c1,COP(=O)([O-])OC,2,,,,537,False,Cn1cc[n+](C)c1.COP(=O)([O-])OC,No changes
YLObv,308.15,100.0,836.0,Krolikowska et al. (2023),Liquid,0.0402,"1,3-dimethylimidazolium dimethyl phosphate",,,Cn1cc[n+](C)c1.COP(=O)([O-])OC,"1,3-dimethylimidazolium dimethyl phosphate",AAqlaB,CCO,ethanol,AAIsrh,Cn1cc[n+](C)c1,COP(=O)([O-])OC,2,,,,538,False,Cn1cc[n+](C)c1.COP(=O)([O-])OC,No changes
YLObv,308.15,100.0,884.0,Krolikowska et al. (2023),Liquid,0.0803,"1,3-dimethylimidazolium dimethyl phosphate",,,Cn1cc[n+](C)c1.COP(=O)([O-])OC,"1,3-dimethylimidazolium dimethyl phosphate",AAqlaB,CCO,ethanol,AAIsrh,Cn1cc[n+](C)c1,COP(=O)([O-])OC,2,,,,539,False,Cn1cc[n+](C)c1.COP(=O)([O-])OC,No changes
YLObv,308.15,100.0,906.0,Krolikowska et al. (2023),Liquid,0.1005,"1,3-dimethylimidazolium dimethyl phosphate",,,Cn1cc[n+](C)c1.COP(=O)([O-])OC,"1,3-dimethylimidazolium dimethyl phosphate",AAqlaB,CCO,ethanol,AAIsrh,Cn1cc[n+](C)c1,COP(=O)([O-])OC,2,,,,540,False,Cn1cc[n+](C)c1.COP(=O)([O-])OC,No changes
YLObv,308.15,100.0,924.0,Krolikowska et al. (2023),Liquid,0.1193,"1,3-dimethylimidazolium dimethyl phosphate",,,Cn1cc[n+](C)c1.COP(=O)([O-])OC,"1,3-dimethylimidazolium dimethyl phosphate",AAqlaB,CCO,ethanol,AAIsrh,Cn1cc[n+](C)c1,COP(=O)([O-])OC,2,,,,541,False,Cn1cc[n+](C)c1.COP(=O)([O-])OC,No changes
YLObv,308.15,100.0,960.0,Krolikowska et al. (2023),Liquid,0.1597,"1,3-dimethylimidazolium dimethyl phosphate",,,Cn1cc[n+](C)c1.COP(=O)([O-])OC,"1,3-dimethylimidazolium dimethyl phosphate",AAqlaB,CCO,ethanol,AAIsrh,Cn1cc[n+](C)c1,COP(=O)([O-])OC,2,,,,542,False,Cn1cc[n+](C)c1.COP(=O)([O-])OC,No changes
YLObv,308.15,100.0,992.0,Krolikowska et al. (2023),Liquid,0.2006,"1,3-dimethylimidazolium dimethyl phosphate",,,Cn1cc[n+](C)c1.COP(=O)([O-])OC,"1,3-dimethylimidazolium dimethyl phosphate",AAqlaB,CCO,ethanol,AAIsrh,Cn1cc[n+](C)c1,COP(=O)([O-])OC,2,,,,543,False,Cn1cc[n+](C)c1.COP(=O)([O-])OC,No changes
YLObv,308.15,100.0,1055.0,Krolikowska et al. (2023),Liquid,0.3005,"1,3-dimethylimidazolium dimethyl phosphate",,,Cn1cc[n+](C)c1.COP(=O)([O-])OC,"1,3-dimethylimidazolium dimethyl phosphate",AAqlaB,CCO,ethanol,AAIsrh,Cn1cc[n+](C)c1,COP(=O)([O-])OC,2,,,,544,False,Cn1cc[n+](C)c1.COP(=O)([O-])OC,No changes
YLObv,308.15,100.0,1105.0,Krolikowska et al. (2023),Liquid,0.4031,"1,3-dimethylimidazolium dimethyl phosphate",,,Cn1cc[n+](C)c1.COP(=O)([O-])OC,"1,3-dimethylimidazolium dimethyl phosphate",AAqlaB,CCO,ethanol,AAIsrh,Cn1cc[n+](C)c1,COP(=O)([O-])OC,2,,,,545,False,Cn1cc[n+](C)c1.COP(=O)([O-])OC,No changes
YLObv,308.15,100.0,1140.0,Krolikowska et al. (2023),Liquid,0.4996,"1,3-dimethylimidazolium dimethyl phosphate",,,Cn1cc[n+](C)c1.COP(=O)([O-])OC,"1,3-dimethylimidazolium dimethyl phosphate",AAqlaB,CCO,ethanol,AAIsrh,Cn1cc[n+](C)c1,COP(=O)([O-])OC,2,,,,546,False,Cn1cc[n+](C)c1.COP(=O)([O-])OC,No changes
YLObv,308.15,100.0,1172.0,Krolikowska et al. (2023),Liquid,0.6043,"1,3-dimethylimidazolium dimethyl phosphate",,,Cn1cc[n+](C)c1.COP(=O)([O-])OC,"1,3-dimethylimidazolium dimethyl phosphate",AAqlaB,CCO,ethanol,AAIsrh,Cn1cc[n+](C)c1,COP(=O)([O-])OC,2,,,,547,False,Cn1cc[n+](C)c1.COP(=O)([O-])OC,No changes
YLObv,308.15,100.0,1196.0,Krolikowska et al. (2023),Liquid,0.7009,"1,3-dimethylimidazolium dimethyl phosphate",,,Cn1cc[n+](C)c1.COP(=O)([O-])OC,"1,3-dimethylimidazolium dimethyl phosphate",AAqlaB,CCO,ethanol,AAIsrh,Cn1cc[n+](C)c1,COP(=O)([O-])OC,2,,,,548,False,Cn1cc[n+](C)c1.COP(=O)([O-])OC,No changes
YLObv,308.15,100.0,1216.0,Krolikowska et al. (2023),Liquid,0.797,"1,3-dimethylimidazolium dimethyl phosphate",,,Cn1cc[n+](C)c1.COP(=O)([O-])OC,"1,3-dimethylimidazolium dimethyl phosphate",AAqlaB,CCO,ethanol,AAIsrh,Cn1cc[n+](C)c1,COP(=O)([O-])OC,2,,,,549,False,Cn1cc[n+](C)c1.COP(=O)([O-])OC,No changes
YLObv,308.15,100.0,1234.0,Krolikowska et al. (2023),Liquid,0.8995,"1,3-dimethylimidazolium dimethyl phosphate",,,Cn1cc[n+](C)c1.COP(=O)([O-])OC,"1,3-dimethylimidazolium dimethyl phosphate",AAqlaB,CCO,ethanol,AAIsrh,Cn1cc[n+](C)c1,COP(=O)([O-])OC,2,,,,550,False,Cn1cc[n+](C)c1.COP(=O)([O-])OC,No changes
YLObv,308.15,100.0,1250.0,Krolikowska et al. (2023),Liquid,1.0,"1,3-dimethylimidazolium dimethyl phosphate",,,Cn1cc[n+](C)c1.COP(=O)([O-])OC,"1,3-dimethylimidazolium dimethyl phosphate",AAqlaB,CCO,ethanol,AAIsrh,Cn1cc[n+](C)c1,COP(=O)([O-])OC,2,,,,551,False,Cn1cc[n+](C)c1.COP(=O)([O-])OC,No changes
YLObv,313.15,100.0,772.0,Krolikowska et al. (2023),Liquid,0.0,"1,3-dimethylimidazolium dimethyl phosphate",,,Cn1cc[n+](C)c1.COP(=O)([O-])OC,"1,3-dimethylimidazolium dimethyl phosphate",AAqlaB,CCO,ethanol,AAIsrh,Cn1cc[n+](C)c1,COP(=O)([O-])OC,2,,,,552,False,Cn1cc[n+](C)c1.COP(=O)([O-])OC,No changes
YLObv,313.15,100.0,804.0,Krolikowska et al. (2023),Liquid,0.0201,"1,3-dimethylimidazolium dimethyl phosphate",,,Cn1cc[n+](C)c1.COP(=O)([O-])OC,"1,3-dimethylimidazolium dimethyl phosphate",AAqlaB,CCO,ethanol,AAIsrh,Cn1cc[n+](C)c1,COP(=O)([O-])OC,2,,,,553,False,Cn1cc[n+](C)c1.COP(=O)([O-])OC,No changes
YLObv,313.15,100.0,831.0,Krolikowska et al. (2023),Liquid,0.0402,"1,3-dimethylimidazolium dimethyl phosphate",,,Cn1cc[n+](C)c1.COP(=O)([O-])OC,"1,3-dimethylimidazolium dimethyl phosphate",AAqlaB,CCO,ethanol,AAIsrh,Cn1cc[n+](C)c1,COP(=O)([O-])OC,2,,,,554,False,Cn1cc[n+](C)c1.COP(=O)([O-])OC,No changes
YLObv,313.15,100.0,880.0,Krolikowska et al. (2023),Liquid,0.0803,"1,3-dimethylimidazolium dimethyl phosphate",,,Cn1cc[n+](C)c1.COP(=O)([O-])OC,"1,3-dimethylimidazolium dimethyl phosphate",AAqlaB,CCO,ethanol,AAIsrh,Cn1cc[n+](C)c1,COP(=O)([O-])OC,2,,,,555,False,Cn1cc[n+](C)c1.COP(=O)([O-])OC,No changes
YLObv,313.15,100.0,902.0,Krolikowska et al. (2023),Liquid,0.1005,"1,3-dimethylimidazolium dimethyl phosphate",,,Cn1cc[n+](C)c1.COP(=O)([O-])OC,"1,3-dimethylimidazolium dimethyl phosphate",AAqlaB,CCO,ethanol,AAIsrh,Cn1cc[n+](C)c1,COP(=O)([O-])OC,2,,,,556,False,Cn1cc[n+](C)c1.COP(=O)([O-])OC,No changes
YLObv,313.15,100.0,920.0,Krolikowska et al. (2023),Liquid,0.1193,"1,3-dimethylimidazolium dimethyl phosphate",,,Cn1cc[n+](C)c1.COP(=O)([O-])OC,"1,3-dimethylimidazolium dimethyl phosphate",AAqlaB,CCO,ethanol,AAIsrh,Cn1cc[n+](C)c1,COP(=O)([O-])OC,2,,,,557,False,Cn1cc[n+](C)c1.COP(=O)([O-])OC,No changes
YLObv,313.15,100.0,957.0,Krolikowska et al. (2023),Liquid,0.1597,"1,3-dimethylimidazolium dimethyl phosphate",,,Cn1cc[n+](C)c1.COP(=O)([O-])OC,"1,3-dimethylimidazolium dimethyl phosphate",AAqlaB,CCO,ethanol,AAIsrh,Cn1cc[n+](C)c1,COP(=O)([O-])OC,2,,,,558,False,Cn1cc[n+](C)c1.COP(=O)([O-])OC,No changes
YLObv,313.15,100.0,988.0,Krolikowska et al. (2023),Liquid,0.2006,"1,3-dimethylimidazolium dimethyl phosphate",,,Cn1cc[n+](C)c1.COP(=O)([O-])OC,"1,3-dimethylimidazolium dimethyl phosphate",AAqlaB,CCO,ethanol,AAIsrh,Cn1cc[n+](C)c1,COP(=O)([O-])OC,2,,,,559,False,Cn1cc[n+](C)c1.COP(=O)([O-])OC,No changes
YLObv,313.15,100.0,1051.0,Krolikowska et al. (2023),Liquid,0.3005,"1,3-dimethylimidazolium dimethyl phosphate",,,Cn1cc[n+](C)c1.COP(=O)([O-])OC,"1,3-dimethylimidazolium dimethyl phosphate",AAqlaB,CCO,ethanol,AAIsrh,Cn1cc[n+](C)c1,COP(=O)([O-])OC,2,,,,560,False,Cn1cc[n+](C)c1.COP(=O)([O-])OC,No changes
YLObv,313.15,100.0,1101.0,Krolikowska et al. (2023),Liquid,0.4031,"1,3-dimethylimidazolium dimethyl phosphate",,,Cn1cc[n+](C)c1.COP(=O)([O-])OC,"1,3-dimethylimidazolium dimethyl phosphate",AAqlaB,CCO,ethanol,AAIsrh,Cn1cc[n+](C)c1,COP(=O)([O-])OC,2,,,,561,False,Cn1cc[n+](C)c1.COP(=O)([O-])OC,No changes
YLObv,313.15,100.0,1136.0,Krolikowska et al. (2023),Liquid,0.4996,"1,3-dimethylimidazolium dimethyl phosphate",,,Cn1cc[n+](C)c1.COP(=O)([O-])OC,"1,3-dimethylimidazolium dimethyl phosphate",AAqlaB,CCO,ethanol,AAIsrh,Cn1cc[n+](C)c1,COP(=O)([O-])OC,2,,,,562,False,Cn1cc[n+](C)c1.COP(=O)([O-])OC,No changes
YLObv,313.15,100.0,1168.0,Krolikowska et al. (2023),Liquid,0.6043,"1,3-dimethylimidazolium dimethyl phosphate",,,Cn1cc[n+](C)c1.COP(=O)([O-])OC,"1,3-dimethylimidazolium dimethyl phosphate",AAqlaB,CCO,ethanol,AAIsrh,Cn1cc[n+](C)c1,COP(=O)([O-])OC,2,,,,563,False,Cn1cc[n+](C)c1.COP(=O)([O-])OC,No changes
YLObv,313.15,100.0,1192.0,Krolikowska et al. (2023),Liquid,0.7009,"1,3-dimethylimidazolium dimethyl phosphate",,,Cn1cc[n+](C)c1.COP(=O)([O-])OC,"1,3-dimethylimidazolium dimethyl phosphate",AAqlaB,CCO,ethanol,AAIsrh,Cn1cc[n+](C)c1,COP(=O)([O-])OC,2,,,,564,False,Cn1cc[n+](C)c1.COP(=O)([O-])OC,No changes
YLObv,313.15,100.0,1213.0,Krolikowska et al. (2023),Liquid,0.797,"1,3-dimethylimidazolium dimethyl phosphate",,,Cn1cc[n+](C)c1.COP(=O)([O-])OC,"1,3-dimethylimidazolium dimethyl phosphate",AAqlaB,CCO,ethanol,AAIsrh,Cn1cc[n+](C)c1,COP(=O)([O-])OC,2,,,,565,False,Cn1cc[n+](C)c1.COP(=O)([O-])OC,No changes
YLObv,313.15,100.0,1230.0,Krolikowska et al. (2023),Liquid,0.8995,"1,3-dimethylimidazolium dimethyl phosphate",,,Cn1cc[n+](C)c1.COP(=O)([O-])OC,"1,3-dimethylimidazolium dimethyl phosphate",AAqlaB,CCO,ethanol,AAIsrh,Cn1cc[n+](C)c1,COP(=O)([O-])OC,2,,,,566,False,Cn1cc[n+](C)c1.COP(=O)([O-])OC,No changes
YLObv,313.15,100.0,1246.0,Krolikowska et al. (2023),Liquid,1.0,"1,3-dimethylimidazolium dimethyl phosphate",,,Cn1cc[n+](C)c1.COP(=O)([O-])OC,"1,3-dimethylimidazolium dimethyl phosphate",AAqlaB,CCO,ethanol,AAIsrh,Cn1cc[n+](C)c1,COP(=O)([O-])OC,2,,,,567,False,Cn1cc[n+](C)c1.COP(=O)([O-])OC,No changes
YLObv,318.15,100.0,768.0,Krolikowska et al. (2023),Liquid,0.0,"1,3-dimethylimidazolium dimethyl phosphate",,,Cn1cc[n+](C)c1.COP(=O)([O-])OC,"1,3-dimethylimidazolium dimethyl phosphate",AAqlaB,CCO,ethanol,AAIsrh,Cn1cc[n+](C)c1,COP(=O)([O-])OC,2,,,,568,False,Cn1cc[n+](C)c1.COP(=O)([O-])OC,No changes
YLObv,318.15,100.0,799.0,Krolikowska et al. (2023),Liquid,0.0201,"1,3-dimethylimidazolium dimethyl phosphate",,,Cn1cc[n+](C)c1.COP(=O)([O-])OC,"1,3-dimethylimidazolium dimethyl phosphate",AAqlaB,CCO,ethanol,AAIsrh,Cn1cc[n+](C)c1,COP(=O)([O-])OC,2,,,,569,False,Cn1cc[n+](C)c1.COP(=O)([O-])OC,No changes
YLObv,318.15,100.0,827.0,Krolikowska et al. (2023),Liquid,0.0402,"1,3-dimethylimidazolium dimethyl phosphate",,,Cn1cc[n+](C)c1.COP(=O)([O-])OC,"1,3-dimethylimidazolium dimethyl phosphate",AAqlaB,CCO,ethanol,AAIsrh,Cn1cc[n+](C)c1,COP(=O)([O-])OC,2,,,,570,False,Cn1cc[n+](C)c1.COP(=O)([O-])OC,No changes
YLObv,318.15,100.0,876.0,Krolikowska et al. (2023),Liquid,0.0803,"1,3-dimethylimidazolium dimethyl phosphate",,,Cn1cc[n+](C)c1.COP(=O)([O-])OC,"1,3-dimethylimidazolium dimethyl phosphate",AAqlaB,CCO,ethanol,AAIsrh,Cn1cc[n+](C)c1,COP(=O)([O-])OC,2,,,,571,False,Cn1cc[n+](C)c1.COP(=O)([O-])OC,No changes
YLObv,318.15,100.0,898.0,Krolikowska et al. (2023),Liquid,0.1005,"1,3-dimethylimidazolium dimethyl phosphate",,,Cn1cc[n+](C)c1.COP(=O)([O-])OC,"1,3-dimethylimidazolium dimethyl phosphate",AAqlaB,CCO,ethanol,AAIsrh,Cn1cc[n+](C)c1,COP(=O)([O-])OC,2,,,,572,False,Cn1cc[n+](C)c1.COP(=O)([O-])OC,No changes
YLObv,318.15,100.0,917.0,Krolikowska et al. (2023),Liquid,0.1193,"1,3-dimethylimidazolium dimethyl phosphate",,,Cn1cc[n+](C)c1.COP(=O)([O-])OC,"1,3-dimethylimidazolium dimethyl phosphate",AAqlaB,CCO,ethanol,AAIsrh,Cn1cc[n+](C)c1,COP(=O)([O-])OC,2,,,,573,False,Cn1cc[n+](C)c1.COP(=O)([O-])OC,No changes
YLObv,318.15,100.0,953.0,Krolikowska et al. (2023),Liquid,0.1597,"1,3-dimethylimidazolium dimethyl phosphate",,,Cn1cc[n+](C)c1.COP(=O)([O-])OC,"1,3-dimethylimidazolium dimethyl phosphate",AAqlaB,CCO,ethanol,AAIsrh,Cn1cc[n+](C)c1,COP(=O)([O-])OC,2,,,,574,False,Cn1cc[n+](C)c1.COP(=O)([O-])OC,No changes
YLObv,318.15,100.0,985.0,Krolikowska et al. (2023),Liquid,0.2006,"1,3-dimethylimidazolium dimethyl phosphate",,,Cn1cc[n+](C)c1.COP(=O)([O-])OC,"1,3-dimethylimidazolium dimethyl phosphate",AAqlaB,CCO,ethanol,AAIsrh,Cn1cc[n+](C)c1,COP(=O)([O-])OC,2,,,,575,False,Cn1cc[n+](C)c1.COP(=O)([O-])OC,No changes
YLObv,318.15,100.0,1048.0,Krolikowska et al. (2023),Liquid,0.3005,"1,3-dimethylimidazolium dimethyl phosphate",,,Cn1cc[n+](C)c1.COP(=O)([O-])OC,"1,3-dimethylimidazolium dimethyl phosphate",AAqlaB,CCO,ethanol,AAIsrh,Cn1cc[n+](C)c1,COP(=O)([O-])OC,2,,,,576,False,Cn1cc[n+](C)c1.COP(=O)([O-])OC,No changes
YLObv,318.15,100.0,1097.0,Krolikowska et al. (2023),Liquid,0.4031,"1,3-dimethylimidazolium dimethyl phosphate",,,Cn1cc[n+](C)c1.COP(=O)([O-])OC,"1,3-dimethylimidazolium dimethyl phosphate",AAqlaB,CCO,ethanol,AAIsrh,Cn1cc[n+](C)c1,COP(=O)([O-])OC,2,,,,577,False,Cn1cc[n+](C)c1.COP(=O)([O-])OC,No changes
YLObv,318.15,100.0,1133.0,Krolikowska et al. (2023),Liquid,0.4996,"1,3-dimethylimidazolium dimethyl phosphate",,,Cn1cc[n+](C)c1.COP(=O)([O-])OC,"1,3-dimethylimidazolium dimethyl phosphate",AAqlaB,CCO,ethanol,AAIsrh,Cn1cc[n+](C)c1,COP(=O)([O-])OC,2,,,,578,False,Cn1cc[n+](C)c1.COP(=O)([O-])OC,No changes
YLObv,318.15,100.0,1165.0,Krolikowska et al. (2023),Liquid,0.6043,"1,3-dimethylimidazolium dimethyl phosphate",,,Cn1cc[n+](C)c1.COP(=O)([O-])OC,"1,3-dimethylimidazolium dimethyl phosphate",AAqlaB,CCO,ethanol,AAIsrh,Cn1cc[n+](C)c1,COP(=O)([O-])OC,2,,,,579,False,Cn1cc[n+](C)c1.COP(=O)([O-])OC,No changes
YLObv,318.15,100.0,1189.0,Krolikowska et al. (2023),Liquid,0.7009,"1,3-dimethylimidazolium dimethyl phosphate",,,Cn1cc[n+](C)c1.COP(=O)([O-])OC,"1,3-dimethylimidazolium dimethyl phosphate",AAqlaB,CCO,ethanol,AAIsrh,Cn1cc[n+](C)c1,COP(=O)([O-])OC,2,,,,580,False,Cn1cc[n+](C)c1.COP(=O)([O-])OC,No changes
YLObv,318.15,100.0,1209.0,Krolikowska et al. (2023),Liquid,0.797,"1,3-dimethylimidazolium dimethyl phosphate",,,Cn1cc[n+](C)c1.COP(=O)([O-])OC,"1,3-dimethylimidazolium dimethyl phosphate",AAqlaB,CCO,ethanol,AAIsrh,Cn1cc[n+](C)c1,COP(=O)([O-])OC,2,,,,581,False,Cn1cc[n+](C)c1.COP(=O)([O-])OC,No changes
YLObv,318.15,100.0,1227.0,Krolikowska et al. (2023),Liquid,0.8995,"1,3-dimethylimidazolium dimethyl phosphate",,,Cn1cc[n+](C)c1.COP(=O)([O-])OC,"1,3-dimethylimidazolium dimethyl phosphate",AAqlaB,CCO,ethanol,AAIsrh,Cn1cc[n+](C)c1,COP(=O)([O-])OC,2,,,,582,False,Cn1cc[n+](C)c1.COP(=O)([O-])OC,No changes
YLObv,318.15,100.0,1243.0,Krolikowska et al. (2023),Liquid,1.0,"1,3-dimethylimidazolium dimethyl phosphate",,,Cn1cc[n+](C)c1.COP(=O)([O-])OC,"1,3-dimethylimidazolium dimethyl phosphate",AAqlaB,CCO,ethanol,AAIsrh,Cn1cc[n+](C)c1,COP(=O)([O-])OC,2,,,,583,False,Cn1cc[n+](C)c1.COP(=O)([O-])OC,No changes
YLObv,323.15,100.0,763.0,Krolikowska et al. (2023),Liquid,0.0,"1,3-dimethylimidazolium dimethyl phosphate",,,Cn1cc[n+](C)c1.COP(=O)([O-])OC,"1,3-dimethylimidazolium dimethyl phosphate",AAqlaB,CCO,ethanol,AAIsrh,Cn1cc[n+](C)c1,COP(=O)([O-])OC,2,,,,584,False,Cn1cc[n+](C)c1.COP(=O)([O-])OC,No changes
YLObv,323.15,100.0,795.0,Krolikowska et al. (2023),Liquid,0.0201,"1,3-dimethylimidazolium dimethyl phosphate",,,Cn1cc[n+](C)c1.COP(=O)([O-])OC,"1,3-dimethylimidazolium dimethyl phosphate",AAqlaB,CCO,ethanol,AAIsrh,Cn1cc[n+](C)c1,COP(=O)([O-])OC,2,,,,585,False,Cn1cc[n+](C)c1.COP(=O)([O-])OC,No changes
YLObv,323.15,100.0,823.0,Krolikowska et al. (2023),Liquid,0.0402,"1,3-dimethylimidazolium dimethyl phosphate",,,Cn1cc[n+](C)c1.COP(=O)([O-])OC,"1,3-dimethylimidazolium dimethyl phosphate",AAqlaB,CCO,ethanol,AAIsrh,Cn1cc[n+](C)c1,COP(=O)([O-])OC,2,,,,586,False,Cn1cc[n+](C)c1.COP(=O)([O-])OC,No changes
YLObv,323.15,100.0,872.0,Krolikowska et al. (2023),Liquid,0.0803,"1,3-dimethylimidazolium dimethyl phosphate",,,Cn1cc[n+](C)c1.COP(=O)([O-])OC,"1,3-dimethylimidazolium dimethyl phosphate",AAqlaB,CCO,ethanol,AAIsrh,Cn1cc[n+](C)c1,COP(=O)([O-])OC,2,,,,587,False,Cn1cc[n+](C)c1.COP(=O)([O-])OC,No changes
YLObv,323.15,100.0,894.0,Krolikowska et al. (2023),Liquid,0.1005,"1,3-dimethylimidazolium dimethyl phosphate",,,Cn1cc[n+](C)c1.COP(=O)([O-])OC,"1,3-dimethylimidazolium dimethyl phosphate",AAqlaB,CCO,ethanol,AAIsrh,Cn1cc[n+](C)c1,COP(=O)([O-])OC,2,,,,588,False,Cn1cc[n+](C)c1.COP(=O)([O-])OC,No changes
YLObv,323.15,100.0,913.0,Krolikowska et al. (2023),Liquid,0.1193,"1,3-dimethylimidazolium dimethyl phosphate",,,Cn1cc[n+](C)c1.COP(=O)([O-])OC,"1,3-dimethylimidazolium dimethyl phosphate",AAqlaB,CCO,ethanol,AAIsrh,Cn1cc[n+](C)c1,COP(=O)([O-])OC,2,,,,589,False,Cn1cc[n+](C)c1.COP(=O)([O-])OC,No changes
YLObv,323.15,100.0,949.0,Krolikowska et al. (2023),Liquid,0.1597,"1,3-dimethylimidazolium dimethyl phosphate",,,Cn1cc[n+](C)c1.COP(=O)([O-])OC,"1,3-dimethylimidazolium dimethyl phosphate",AAqlaB,CCO,ethanol,AAIsrh,Cn1cc[n+](C)c1,COP(=O)([O-])OC,2,,,,590,False,Cn1cc[n+](C)c1.COP(=O)([O-])OC,No changes
YLObv,323.15,100.0,981.0,Krolikowska et al. (2023),Liquid,0.2006,"1,3-dimethylimidazolium dimethyl phosphate",,,Cn1cc[n+](C)c1.COP(=O)([O-])OC,"1,3-dimethylimidazolium dimethyl phosphate",AAqlaB,CCO,ethanol,AAIsrh,Cn1cc[n+](C)c1,COP(=O)([O-])OC,2,,,,591,False,Cn1cc[n+](C)c1.COP(=O)([O-])OC,No changes
YLObv,323.15,100.0,1044.0,Krolikowska et al. (2023),Liquid,0.3005,"1,3-dimethylimidazolium dimethyl phosphate",,,Cn1cc[n+](C)c1.COP(=O)([O-])OC,"1,3-dimethylimidazolium dimethyl phosphate",AAqlaB,CCO,ethanol,AAIsrh,Cn1cc[n+](C)c1,COP(=O)([O-])OC,2,,,,592,False,Cn1cc[n+](C)c1.COP(=O)([O-])OC,No changes