setid,Temperature (K),Pressure (kPa),Density (kg/m3),reference,phases,Mole fraction,Mole fraction of compound name,Weight fraction,Weight fraction of compound name,IL_SMILES,IL_name,IL_ID,Solvent_SMILES,Solvent_name,Solvent_ID,IL_cation_SMILES,IL_anion_SMILES,IL_component_number,Mole fraction of solvent,IL_MW,Solvent_MW,Record_ID,Contains_Metal,Standardized_IL_SMILES,Changes
LIQxG,303.15,100.0,1153.8,Lu et al. (2015),Liquid,0.9008,"2-ethyl-1,1,3,3-tetramethylguanidinium ethyl sulfate",,,CC[NH+]=C(N(C)C)N(C)C.CCOS(=O)(=O)[O-],"2-ethyl-1,1,3,3-tetramethylguanidinium ethyl sulfate",AAzpuP,CCO,ethanol,AAIsrh,CC[NH+]=C(N(C)C)N(C)C,CCOS(=O)(=O)[O-],2,,,,1163,False,CC[NH+]=C(N(C)C)N(C)C.CCOS(=O)(=O)[O-],No changes
LIQxG,303.15,100.0,1163.8,Lu et al. (2015),Liquid,1.0,"2-ethyl-1,1,3,3-tetramethylguanidinium ethyl sulfate",,,CC[NH+]=C(N(C)C)N(C)C.CCOS(=O)(=O)[O-],"2-ethyl-1,1,3,3-tetramethylguanidinium ethyl sulfate",AAzpuP,CCO,ethanol,AAIsrh,CC[NH+]=C(N(C)C)N(C)C,CCOS(=O)(=O)[O-],2,,,,1164,False,CC[NH+]=C(N(C)C)N(C)C.CCOS(=O)(=O)[O-],No changes
LIQxG,308.15,100.0,776.52,Lu et al. (2015),Liquid,0.0,"2-ethyl-1,1,3,3-tetramethylguanidinium ethyl sulfate",,,CC[NH+]=C(N(C)C)N(C)C.CCOS(=O)(=O)[O-],"2-ethyl-1,1,3,3-tetramethylguanidinium ethyl sulfate",AAzpuP,CCO,ethanol,AAIsrh,CC[NH+]=C(N(C)C)N(C)C,CCOS(=O)(=O)[O-],2,,,,1165,False,CC[NH+]=C(N(C)C)N(C)C.CCOS(=O)(=O)[O-],No changes
LIQxG,308.15,100.0,898.18,Lu et al. (2015),Liquid,0.0998,"2-ethyl-1,1,3,3-tetramethylguanidinium ethyl sulfate",,,CC[NH+]=C(N(C)C)N(C)C.CCOS(=O)(=O)[O-],"2-ethyl-1,1,3,3-tetramethylguanidinium ethyl sulfate",AAzpuP,CCO,ethanol,AAIsrh,CC[NH+]=C(N(C)C)N(C)C,CCOS(=O)(=O)[O-],2,,,,1166,False,CC[NH+]=C(N(C)C)N(C)C.CCOS(=O)(=O)[O-],No changes
LIQxG,308.15,100.0,972.66,Lu et al. (2015),Liquid,0.2003,"2-ethyl-1,1,3,3-tetramethylguanidinium ethyl sulfate",,,CC[NH+]=C(N(C)C)N(C)C.CCOS(=O)(=O)[O-],"2-ethyl-1,1,3,3-tetramethylguanidinium ethyl sulfate",AAzpuP,CCO,ethanol,AAIsrh,CC[NH+]=C(N(C)C)N(C)C,CCOS(=O)(=O)[O-],2,,,,1167,False,CC[NH+]=C(N(C)C)N(C)C.CCOS(=O)(=O)[O-],No changes
LIQxG,308.15,100.0,1022.45,Lu et al. (2015),Liquid,0.3006,"2-ethyl-1,1,3,3-tetramethylguanidinium ethyl sulfate",,,CC[NH+]=C(N(C)C)N(C)C.CCOS(=O)(=O)[O-],"2-ethyl-1,1,3,3-tetramethylguanidinium ethyl sulfate",AAzpuP,CCO,ethanol,AAIsrh,CC[NH+]=C(N(C)C)N(C)C,CCOS(=O)(=O)[O-],2,,,,1168,False,CC[NH+]=C(N(C)C)N(C)C.CCOS(=O)(=O)[O-],No changes
LIQxG,308.15,100.0,1058.6,Lu et al. (2015),Liquid,0.4016,"2-ethyl-1,1,3,3-tetramethylguanidinium ethyl sulfate",,,CC[NH+]=C(N(C)C)N(C)C.CCOS(=O)(=O)[O-],"2-ethyl-1,1,3,3-tetramethylguanidinium ethyl sulfate",AAzpuP,CCO,ethanol,AAIsrh,CC[NH+]=C(N(C)C)N(C)C,CCOS(=O)(=O)[O-],2,,,,1169,False,CC[NH+]=C(N(C)C)N(C)C.CCOS(=O)(=O)[O-],No changes
LIQxG,308.15,100.0,1084.84,Lu et al. (2015),Liquid,0.498,"2-ethyl-1,1,3,3-tetramethylguanidinium ethyl sulfate",,,CC[NH+]=C(N(C)C)N(C)C.CCOS(=O)(=O)[O-],"2-ethyl-1,1,3,3-tetramethylguanidinium ethyl sulfate",AAzpuP,CCO,ethanol,AAIsrh,CC[NH+]=C(N(C)C)N(C)C,CCOS(=O)(=O)[O-],2,,,,1170,False,CC[NH+]=C(N(C)C)N(C)C.CCOS(=O)(=O)[O-],No changes
LIQxG,308.15,100.0,1106.73,Lu et al. (2015),Liquid,0.5996,"2-ethyl-1,1,3,3-tetramethylguanidinium ethyl sulfate",,,CC[NH+]=C(N(C)C)N(C)C.CCOS(=O)(=O)[O-],"2-ethyl-1,1,3,3-tetramethylguanidinium ethyl sulfate",AAzpuP,CCO,ethanol,AAIsrh,CC[NH+]=C(N(C)C)N(C)C,CCOS(=O)(=O)[O-],2,,,,1171,False,CC[NH+]=C(N(C)C)N(C)C.CCOS(=O)(=O)[O-],No changes
LIQxG,308.15,100.0,1123.77,Lu et al. (2015),Liquid,0.6976,"2-ethyl-1,1,3,3-tetramethylguanidinium ethyl sulfate",,,CC[NH+]=C(N(C)C)N(C)C.CCOS(=O)(=O)[O-],"2-ethyl-1,1,3,3-tetramethylguanidinium ethyl sulfate",AAzpuP,CCO,ethanol,AAIsrh,CC[NH+]=C(N(C)C)N(C)C,CCOS(=O)(=O)[O-],2,,,,1172,False,CC[NH+]=C(N(C)C)N(C)C.CCOS(=O)(=O)[O-],No changes
LIQxG,308.15,100.0,1137.9,Lu et al. (2015),Liquid,0.7969,"2-ethyl-1,1,3,3-tetramethylguanidinium ethyl sulfate",,,CC[NH+]=C(N(C)C)N(C)C.CCOS(=O)(=O)[O-],"2-ethyl-1,1,3,3-tetramethylguanidinium ethyl sulfate",AAzpuP,CCO,ethanol,AAIsrh,CC[NH+]=C(N(C)C)N(C)C,CCOS(=O)(=O)[O-],2,,,,1173,False,CC[NH+]=C(N(C)C)N(C)C.CCOS(=O)(=O)[O-],No changes
LIQxG,308.15,100.0,1150.3,Lu et al. (2015),Liquid,0.9008,"2-ethyl-1,1,3,3-tetramethylguanidinium ethyl sulfate",,,CC[NH+]=C(N(C)C)N(C)C.CCOS(=O)(=O)[O-],"2-ethyl-1,1,3,3-tetramethylguanidinium ethyl sulfate",AAzpuP,CCO,ethanol,AAIsrh,CC[NH+]=C(N(C)C)N(C)C,CCOS(=O)(=O)[O-],2,,,,1174,False,CC[NH+]=C(N(C)C)N(C)C.CCOS(=O)(=O)[O-],No changes
LIQxG,308.15,100.0,1160.3,Lu et al. (2015),Liquid,1.0,"2-ethyl-1,1,3,3-tetramethylguanidinium ethyl sulfate",,,CC[NH+]=C(N(C)C)N(C)C.CCOS(=O)(=O)[O-],"2-ethyl-1,1,3,3-tetramethylguanidinium ethyl sulfate",AAzpuP,CCO,ethanol,AAIsrh,CC[NH+]=C(N(C)C)N(C)C,CCOS(=O)(=O)[O-],2,,,,1175,False,CC[NH+]=C(N(C)C)N(C)C.CCOS(=O)(=O)[O-],No changes
LIQxG,313.15,100.0,772.12,Lu et al. (2015),Liquid,0.0,"2-ethyl-1,1,3,3-tetramethylguanidinium ethyl sulfate",,,CC[NH+]=C(N(C)C)N(C)C.CCOS(=O)(=O)[O-],"2-ethyl-1,1,3,3-tetramethylguanidinium ethyl sulfate",AAzpuP,CCO,ethanol,AAIsrh,CC[NH+]=C(N(C)C)N(C)C,CCOS(=O)(=O)[O-],2,,,,1176,False,CC[NH+]=C(N(C)C)N(C)C.CCOS(=O)(=O)[O-],No changes
LIQxG,313.15,100.0,894.15,Lu et al. (2015),Liquid,0.0998,"2-ethyl-1,1,3,3-tetramethylguanidinium ethyl sulfate",,,CC[NH+]=C(N(C)C)N(C)C.CCOS(=O)(=O)[O-],"2-ethyl-1,1,3,3-tetramethylguanidinium ethyl sulfate",AAzpuP,CCO,ethanol,AAIsrh,CC[NH+]=C(N(C)C)N(C)C,CCOS(=O)(=O)[O-],2,,,,1177,False,CC[NH+]=C(N(C)C)N(C)C.CCOS(=O)(=O)[O-],No changes
LIQxG,313.15,100.0,968.7,Lu et al. (2015),Liquid,0.2003,"2-ethyl-1,1,3,3-tetramethylguanidinium ethyl sulfate",,,CC[NH+]=C(N(C)C)N(C)C.CCOS(=O)(=O)[O-],"2-ethyl-1,1,3,3-tetramethylguanidinium ethyl sulfate",AAzpuP,CCO,ethanol,AAIsrh,CC[NH+]=C(N(C)C)N(C)C,CCOS(=O)(=O)[O-],2,,,,1178,False,CC[NH+]=C(N(C)C)N(C)C.CCOS(=O)(=O)[O-],No changes
LIQxG,313.15,100.0,1018.66,Lu et al. (2015),Liquid,0.3006,"2-ethyl-1,1,3,3-tetramethylguanidinium ethyl sulfate",,,CC[NH+]=C(N(C)C)N(C)C.CCOS(=O)(=O)[O-],"2-ethyl-1,1,3,3-tetramethylguanidinium ethyl sulfate",AAzpuP,CCO,ethanol,AAIsrh,CC[NH+]=C(N(C)C)N(C)C,CCOS(=O)(=O)[O-],2,,,,1179,False,CC[NH+]=C(N(C)C)N(C)C.CCOS(=O)(=O)[O-],No changes
LIQxG,313.15,100.0,1054.91,Lu et al. (2015),Liquid,0.4016,"2-ethyl-1,1,3,3-tetramethylguanidinium ethyl sulfate",,,CC[NH+]=C(N(C)C)N(C)C.CCOS(=O)(=O)[O-],"2-ethyl-1,1,3,3-tetramethylguanidinium ethyl sulfate",AAzpuP,CCO,ethanol,AAIsrh,CC[NH+]=C(N(C)C)N(C)C,CCOS(=O)(=O)[O-],2,,,,1180,False,CC[NH+]=C(N(C)C)N(C)C.CCOS(=O)(=O)[O-],No changes
LIQxG,313.15,100.0,1081.22,Lu et al. (2015),Liquid,0.498,"2-ethyl-1,1,3,3-tetramethylguanidinium ethyl sulfate",,,CC[NH+]=C(N(C)C)N(C)C.CCOS(=O)(=O)[O-],"2-ethyl-1,1,3,3-tetramethylguanidinium ethyl sulfate",AAzpuP,CCO,ethanol,AAIsrh,CC[NH+]=C(N(C)C)N(C)C,CCOS(=O)(=O)[O-],2,,,,1181,False,CC[NH+]=C(N(C)C)N(C)C.CCOS(=O)(=O)[O-],No changes
LIQxG,313.15,100.0,1103.16,Lu et al. (2015),Liquid,0.5996,"2-ethyl-1,1,3,3-tetramethylguanidinium ethyl sulfate",,,CC[NH+]=C(N(C)C)N(C)C.CCOS(=O)(=O)[O-],"2-ethyl-1,1,3,3-tetramethylguanidinium ethyl sulfate",AAzpuP,CCO,ethanol,AAIsrh,CC[NH+]=C(N(C)C)N(C)C,CCOS(=O)(=O)[O-],2,,,,1182,False,CC[NH+]=C(N(C)C)N(C)C.CCOS(=O)(=O)[O-],No changes
LIQxG,313.15,100.0,1120.23,Lu et al. (2015),Liquid,0.6976,"2-ethyl-1,1,3,3-tetramethylguanidinium ethyl sulfate",,,CC[NH+]=C(N(C)C)N(C)C.CCOS(=O)(=O)[O-],"2-ethyl-1,1,3,3-tetramethylguanidinium ethyl sulfate",AAzpuP,CCO,ethanol,AAIsrh,CC[NH+]=C(N(C)C)N(C)C,CCOS(=O)(=O)[O-],2,,,,1183,False,CC[NH+]=C(N(C)C)N(C)C.CCOS(=O)(=O)[O-],No changes
LIQxG,313.15,100.0,1134.4,Lu et al. (2015),Liquid,0.7969,"2-ethyl-1,1,3,3-tetramethylguanidinium ethyl sulfate",,,CC[NH+]=C(N(C)C)N(C)C.CCOS(=O)(=O)[O-],"2-ethyl-1,1,3,3-tetramethylguanidinium ethyl sulfate",AAzpuP,CCO,ethanol,AAIsrh,CC[NH+]=C(N(C)C)N(C)C,CCOS(=O)(=O)[O-],2,,,,1184,False,CC[NH+]=C(N(C)C)N(C)C.CCOS(=O)(=O)[O-],No changes
LIQxG,313.15,100.0,1146.8,Lu et al. (2015),Liquid,0.9008,"2-ethyl-1,1,3,3-tetramethylguanidinium ethyl sulfate",,,CC[NH+]=C(N(C)C)N(C)C.CCOS(=O)(=O)[O-],"2-ethyl-1,1,3,3-tetramethylguanidinium ethyl sulfate",AAzpuP,CCO,ethanol,AAIsrh,CC[NH+]=C(N(C)C)N(C)C,CCOS(=O)(=O)[O-],2,,,,1185,False,CC[NH+]=C(N(C)C)N(C)C.CCOS(=O)(=O)[O-],No changes
LIQxG,313.15,100.0,1156.8,Lu et al. (2015),Liquid,1.0,"2-ethyl-1,1,3,3-tetramethylguanidinium ethyl sulfate",,,CC[NH+]=C(N(C)C)N(C)C.CCOS(=O)(=O)[O-],"2-ethyl-1,1,3,3-tetramethylguanidinium ethyl sulfate",AAzpuP,CCO,ethanol,AAIsrh,CC[NH+]=C(N(C)C)N(C)C,CCOS(=O)(=O)[O-],2,,,,1186,False,CC[NH+]=C(N(C)C)N(C)C.CCOS(=O)(=O)[O-],No changes
LIQxG,318.15,100.0,767.71,Lu et al. (2015),Liquid,0.0,"2-ethyl-1,1,3,3-tetramethylguanidinium ethyl sulfate",,,CC[NH+]=C(N(C)C)N(C)C.CCOS(=O)(=O)[O-],"2-ethyl-1,1,3,3-tetramethylguanidinium ethyl sulfate",AAzpuP,CCO,ethanol,AAIsrh,CC[NH+]=C(N(C)C)N(C)C,CCOS(=O)(=O)[O-],2,,,,1187,False,CC[NH+]=C(N(C)C)N(C)C.CCOS(=O)(=O)[O-],No changes
LIQxG,318.15,100.0,890.12,Lu et al. (2015),Liquid,0.0998,"2-ethyl-1,1,3,3-tetramethylguanidinium ethyl sulfate",,,CC[NH+]=C(N(C)C)N(C)C.CCOS(=O)(=O)[O-],"2-ethyl-1,1,3,3-tetramethylguanidinium ethyl sulfate",AAzpuP,CCO,ethanol,AAIsrh,CC[NH+]=C(N(C)C)N(C)C,CCOS(=O)(=O)[O-],2,,,,1188,False,CC[NH+]=C(N(C)C)N(C)C.CCOS(=O)(=O)[O-],No changes
LIQxG,318.15,100.0,964.81,Lu et al. (2015),Liquid,0.2003,"2-ethyl-1,1,3,3-tetramethylguanidinium ethyl sulfate",,,CC[NH+]=C(N(C)C)N(C)C.CCOS(=O)(=O)[O-],"2-ethyl-1,1,3,3-tetramethylguanidinium ethyl sulfate",AAzpuP,CCO,ethanol,AAIsrh,CC[NH+]=C(N(C)C)N(C)C,CCOS(=O)(=O)[O-],2,,,,1189,False,CC[NH+]=C(N(C)C)N(C)C.CCOS(=O)(=O)[O-],No changes
LIQxG,318.15,100.0,1014.86,Lu et al. (2015),Liquid,0.3006,"2-ethyl-1,1,3,3-tetramethylguanidinium ethyl sulfate",,,CC[NH+]=C(N(C)C)N(C)C.CCOS(=O)(=O)[O-],"2-ethyl-1,1,3,3-tetramethylguanidinium ethyl sulfate",AAzpuP,CCO,ethanol,AAIsrh,CC[NH+]=C(N(C)C)N(C)C,CCOS(=O)(=O)[O-],2,,,,1190,False,CC[NH+]=C(N(C)C)N(C)C.CCOS(=O)(=O)[O-],No changes
LIQxG,318.15,100.0,1051.24,Lu et al. (2015),Liquid,0.4016,"2-ethyl-1,1,3,3-tetramethylguanidinium ethyl sulfate",,,CC[NH+]=C(N(C)C)N(C)C.CCOS(=O)(=O)[O-],"2-ethyl-1,1,3,3-tetramethylguanidinium ethyl sulfate",AAzpuP,CCO,ethanol,AAIsrh,CC[NH+]=C(N(C)C)N(C)C,CCOS(=O)(=O)[O-],2,,,,1191,False,CC[NH+]=C(N(C)C)N(C)C.CCOS(=O)(=O)[O-],No changes
LIQxG,318.15,100.0,1077.62,Lu et al. (2015),Liquid,0.498,"2-ethyl-1,1,3,3-tetramethylguanidinium ethyl sulfate",,,CC[NH+]=C(N(C)C)N(C)C.CCOS(=O)(=O)[O-],"2-ethyl-1,1,3,3-tetramethylguanidinium ethyl sulfate",AAzpuP,CCO,ethanol,AAIsrh,CC[NH+]=C(N(C)C)N(C)C,CCOS(=O)(=O)[O-],2,,,,1192,False,CC[NH+]=C(N(C)C)N(C)C.CCOS(=O)(=O)[O-],No changes
LIQxG,318.15,100.0,1099.62,Lu et al. (2015),Liquid,0.5996,"2-ethyl-1,1,3,3-tetramethylguanidinium ethyl sulfate",,,CC[NH+]=C(N(C)C)N(C)C.CCOS(=O)(=O)[O-],"2-ethyl-1,1,3,3-tetramethylguanidinium ethyl sulfate",AAzpuP,CCO,ethanol,AAIsrh,CC[NH+]=C(N(C)C)N(C)C,CCOS(=O)(=O)[O-],2,,,,1193,False,CC[NH+]=C(N(C)C)N(C)C.CCOS(=O)(=O)[O-],No changes
LIQxG,318.15,100.0,1116.66,Lu et al. (2015),Liquid,0.6976,"2-ethyl-1,1,3,3-tetramethylguanidinium ethyl sulfate",,,CC[NH+]=C(N(C)C)N(C)C.CCOS(=O)(=O)[O-],"2-ethyl-1,1,3,3-tetramethylguanidinium ethyl sulfate",AAzpuP,CCO,ethanol,AAIsrh,CC[NH+]=C(N(C)C)N(C)C,CCOS(=O)(=O)[O-],2,,,,1194,False,CC[NH+]=C(N(C)C)N(C)C.CCOS(=O)(=O)[O-],No changes
LIQxG,318.15,100.0,1130.9,Lu et al. (2015),Liquid,0.7969,"2-ethyl-1,1,3,3-tetramethylguanidinium ethyl sulfate",,,CC[NH+]=C(N(C)C)N(C)C.CCOS(=O)(=O)[O-],"2-ethyl-1,1,3,3-tetramethylguanidinium ethyl sulfate",AAzpuP,CCO,ethanol,AAIsrh,CC[NH+]=C(N(C)C)N(C)C,CCOS(=O)(=O)[O-],2,,,,1195,False,CC[NH+]=C(N(C)C)N(C)C.CCOS(=O)(=O)[O-],No changes
LIQxG,318.15,100.0,1143.3,Lu et al. (2015),Liquid,0.9008,"2-ethyl-1,1,3,3-tetramethylguanidinium ethyl sulfate",,,CC[NH+]=C(N(C)C)N(C)C.CCOS(=O)(=O)[O-],"2-ethyl-1,1,3,3-tetramethylguanidinium ethyl sulfate",AAzpuP,CCO,ethanol,AAIsrh,CC[NH+]=C(N(C)C)N(C)C,CCOS(=O)(=O)[O-],2,,,,1196,False,CC[NH+]=C(N(C)C)N(C)C.CCOS(=O)(=O)[O-],No changes
LIQxG,318.15,100.0,1153.3,Lu et al. (2015),Liquid,1.0,"2-ethyl-1,1,3,3-tetramethylguanidinium ethyl sulfate",,,CC[NH+]=C(N(C)C)N(C)C.CCOS(=O)(=O)[O-],"2-ethyl-1,1,3,3-tetramethylguanidinium ethyl sulfate",AAzpuP,CCO,ethanol,AAIsrh,CC[NH+]=C(N(C)C)N(C)C,CCOS(=O)(=O)[O-],2,,,,1197,False,CC[NH+]=C(N(C)C)N(C)C.CCOS(=O)(=O)[O-],No changes
LIQxG,323.15,100.0,763.26,Lu et al. (2015),Liquid,0.0,"2-ethyl-1,1,3,3-tetramethylguanidinium ethyl sulfate",,,CC[NH+]=C(N(C)C)N(C)C.CCOS(=O)(=O)[O-],"2-ethyl-1,1,3,3-tetramethylguanidinium ethyl sulfate",AAzpuP,CCO,ethanol,AAIsrh,CC[NH+]=C(N(C)C)N(C)C,CCOS(=O)(=O)[O-],2,,,,1198,False,CC[NH+]=C(N(C)C)N(C)C.CCOS(=O)(=O)[O-],No changes
LIQxG,323.15,100.0,886.07,Lu et al. (2015),Liquid,0.0998,"2-ethyl-1,1,3,3-tetramethylguanidinium ethyl sulfate",,,CC[NH+]=C(N(C)C)N(C)C.CCOS(=O)(=O)[O-],"2-ethyl-1,1,3,3-tetramethylguanidinium ethyl sulfate",AAzpuP,CCO,ethanol,AAIsrh,CC[NH+]=C(N(C)C)N(C)C,CCOS(=O)(=O)[O-],2,,,,1199,False,CC[NH+]=C(N(C)C)N(C)C.CCOS(=O)(=O)[O-],No changes
LIQxG,323.15,100.0,960.91,Lu et al. (2015),Liquid,0.2003,"2-ethyl-1,1,3,3-tetramethylguanidinium ethyl sulfate",,,CC[NH+]=C(N(C)C)N(C)C.CCOS(=O)(=O)[O-],"2-ethyl-1,1,3,3-tetramethylguanidinium ethyl sulfate",AAzpuP,CCO,ethanol,AAIsrh,CC[NH+]=C(N(C)C)N(C)C,CCOS(=O)(=O)[O-],2,,,,1200,False,CC[NH+]=C(N(C)C)N(C)C.CCOS(=O)(=O)[O-],No changes
LIQxG,323.15,100.0,1011.05,Lu et al. (2015),Liquid,0.3006,"2-ethyl-1,1,3,3-tetramethylguanidinium ethyl sulfate",,,CC[NH+]=C(N(C)C)N(C)C.CCOS(=O)(=O)[O-],"2-ethyl-1,1,3,3-tetramethylguanidinium ethyl sulfate",AAzpuP,CCO,ethanol,AAIsrh,CC[NH+]=C(N(C)C)N(C)C,CCOS(=O)(=O)[O-],2,,,,1201,False,CC[NH+]=C(N(C)C)N(C)C.CCOS(=O)(=O)[O-],No changes
LIQxG,323.15,100.0,1047.55,Lu et al. (2015),Liquid,0.4016,"2-ethyl-1,1,3,3-tetramethylguanidinium ethyl sulfate",,,CC[NH+]=C(N(C)C)N(C)C.CCOS(=O)(=O)[O-],"2-ethyl-1,1,3,3-tetramethylguanidinium ethyl sulfate",AAzpuP,CCO,ethanol,AAIsrh,CC[NH+]=C(N(C)C)N(C)C,CCOS(=O)(=O)[O-],2,,,,1202,False,CC[NH+]=C(N(C)C)N(C)C.CCOS(=O)(=O)[O-],No changes
LIQxG,323.15,100.0,1074.02,Lu et al. (2015),Liquid,0.498,"2-ethyl-1,1,3,3-tetramethylguanidinium ethyl sulfate",,,CC[NH+]=C(N(C)C)N(C)C.CCOS(=O)(=O)[O-],"2-ethyl-1,1,3,3-tetramethylguanidinium ethyl sulfate",AAzpuP,CCO,ethanol,AAIsrh,CC[NH+]=C(N(C)C)N(C)C,CCOS(=O)(=O)[O-],2,,,,1203,False,CC[NH+]=C(N(C)C)N(C)C.CCOS(=O)(=O)[O-],No changes
LIQxG,323.15,100.0,1096.11,Lu et al. (2015),Liquid,0.5996,"2-ethyl-1,1,3,3-tetramethylguanidinium ethyl sulfate",,,CC[NH+]=C(N(C)C)N(C)C.CCOS(=O)(=O)[O-],"2-ethyl-1,1,3,3-tetramethylguanidinium ethyl sulfate",AAzpuP,CCO,ethanol,AAIsrh,CC[NH+]=C(N(C)C)N(C)C,CCOS(=O)(=O)[O-],2,,,,1204,False,CC[NH+]=C(N(C)C)N(C)C.CCOS(=O)(=O)[O-],No changes
LIQxG,323.15,100.0,1113.14,Lu et al. (2015),Liquid,0.6976,"2-ethyl-1,1,3,3-tetramethylguanidinium ethyl sulfate",,,CC[NH+]=C(N(C)C)N(C)C.CCOS(=O)(=O)[O-],"2-ethyl-1,1,3,3-tetramethylguanidinium ethyl sulfate",AAzpuP,CCO,ethanol,AAIsrh,CC[NH+]=C(N(C)C)N(C)C,CCOS(=O)(=O)[O-],2,,,,1205,False,CC[NH+]=C(N(C)C)N(C)C.CCOS(=O)(=O)[O-],No changes
LIQxG,323.15,100.0,1127.4,Lu et al. (2015),Liquid,0.7969,"2-ethyl-1,1,3,3-tetramethylguanidinium ethyl sulfate",,,CC[NH+]=C(N(C)C)N(C)C.CCOS(=O)(=O)[O-],"2-ethyl-1,1,3,3-tetramethylguanidinium ethyl sulfate",AAzpuP,CCO,ethanol,AAIsrh,CC[NH+]=C(N(C)C)N(C)C,CCOS(=O)(=O)[O-],2,,,,1206,False,CC[NH+]=C(N(C)C)N(C)C.CCOS(=O)(=O)[O-],No changes
LIQxG,323.15,100.0,1139.8,Lu et al. (2015),Liquid,0.9008,"2-ethyl-1,1,3,3-tetramethylguanidinium ethyl sulfate",,,CC[NH+]=C(N(C)C)N(C)C.CCOS(=O)(=O)[O-],"2-ethyl-1,1,3,3-tetramethylguanidinium ethyl sulfate",AAzpuP,CCO,ethanol,AAIsrh,CC[NH+]=C(N(C)C)N(C)C,CCOS(=O)(=O)[O-],2,,,,1207,False,CC[NH+]=C(N(C)C)N(C)C.CCOS(=O)(=O)[O-],No changes
LIQxG,323.15,100.0,1149.9,Lu et al. (2015),Liquid,1.0,"2-ethyl-1,1,3,3-tetramethylguanidinium ethyl sulfate",,,CC[NH+]=C(N(C)C)N(C)C.CCOS(=O)(=O)[O-],"2-ethyl-1,1,3,3-tetramethylguanidinium ethyl sulfate",AAzpuP,CCO,ethanol,AAIsrh,CC[NH+]=C(N(C)C)N(C)C,CCOS(=O)(=O)[O-],2,,,,1208,False,CC[NH+]=C(N(C)C)N(C)C.CCOS(=O)(=O)[O-],No changes
MpgoE,313.2,100.0,1340.0,Qiao et al. (2011),Liquid,0.9,ethanol,,,CCCC[n+]1ccn(C)c1.F[P-](F)(F)(F)(F)F,1-butyl-3-methylimidazolium hexafluorophosphate,ABChJv,CCO,ethanol,AAIsrh,CCCC[n+]1ccn(C)c1,F[P-](F)(F)(F)(F)F,2,0.1,,,1209,False,CCCC[n+]1ccn(C)c1.F[P-](F)(F)(F)(F)F,No changes
MpgoE,333.2,100.0,1320.0,Qiao et al. (2011),Liquid,0.9,ethanol,,,CCCC[n+]1ccn(C)c1.F[P-](F)(F)(F)(F)F,1-butyl-3-methylimidazolium hexafluorophosphate,ABChJv,CCO,ethanol,AAIsrh,CCCC[n+]1ccn(C)c1,F[P-](F)(F)(F)(F)F,2,0.1,,,1210,False,CCCC[n+]1ccn(C)c1.F[P-](F)(F)(F)(F)F,No changes
MpgoE,313.2,100.0,1315.0,Qiao et al. (2011),Liquid,0.8,ethanol,,,CCCC[n+]1ccn(C)c1.F[P-](F)(F)(F)(F)F,1-butyl-3-methylimidazolium hexafluorophosphate,ABChJv,CCO,ethanol,AAIsrh,CCCC[n+]1ccn(C)c1,F[P-](F)(F)(F)(F)F,2,0.2,,,1211,False,CCCC[n+]1ccn(C)c1.F[P-](F)(F)(F)(F)F,No changes
MpgoE,333.2,100.0,1298.0,Qiao et al. (2011),Liquid,0.8,ethanol,,,CCCC[n+]1ccn(C)c1.F[P-](F)(F)(F)(F)F,1-butyl-3-methylimidazolium hexafluorophosphate,ABChJv,CCO,ethanol,AAIsrh,CCCC[n+]1ccn(C)c1,F[P-](F)(F)(F)(F)F,2,0.2,,,1212,False,CCCC[n+]1ccn(C)c1.F[P-](F)(F)(F)(F)F,No changes
MpgoE,313.2,100.0,1300.0,Qiao et al. (2011),Liquid,0.7108,ethanol,,,CCCC[n+]1ccn(C)c1.F[P-](F)(F)(F)(F)F,1-butyl-3-methylimidazolium hexafluorophosphate,ABChJv,CCO,ethanol,AAIsrh,CCCC[n+]1ccn(C)c1,F[P-](F)(F)(F)(F)F,2,0.2892,,,1213,False,CCCC[n+]1ccn(C)c1.F[P-](F)(F)(F)(F)F,No changes
MpgoE,333.2,100.0,1284.0,Qiao et al. (2011),Liquid,0.7108,ethanol,,,CCCC[n+]1ccn(C)c1.F[P-](F)(F)(F)(F)F,1-butyl-3-methylimidazolium hexafluorophosphate,ABChJv,CCO,ethanol,AAIsrh,CCCC[n+]1ccn(C)c1,F[P-](F)(F)(F)(F)F,2,0.2892,,,1214,False,CCCC[n+]1ccn(C)c1.F[P-](F)(F)(F)(F)F,No changes
MpgoE,313.2,100.0,1262.0,Qiao et al. (2011),Liquid,0.5965,ethanol,,,CCCC[n+]1ccn(C)c1.F[P-](F)(F)(F)(F)F,1-butyl-3-methylimidazolium hexafluorophosphate,ABChJv,CCO,ethanol,AAIsrh,CCCC[n+]1ccn(C)c1,F[P-](F)(F)(F)(F)F,2,0.4035,,,1215,False,CCCC[n+]1ccn(C)c1.F[P-](F)(F)(F)(F)F,No changes
MpgoE,333.2,100.0,1246.0,Qiao et al. (2011),Liquid,0.5965,ethanol,,,CCCC[n+]1ccn(C)c1.F[P-](F)(F)(F)(F)F,1-butyl-3-methylimidazolium hexafluorophosphate,ABChJv,CCO,ethanol,AAIsrh,CCCC[n+]1ccn(C)c1,F[P-](F)(F)(F)(F)F,2,0.4035,,,1216,False,CCCC[n+]1ccn(C)c1.F[P-](F)(F)(F)(F)F,No changes
MpgoE,313.2,100.0,1235.0,Qiao et al. (2011),Liquid,0.5041,ethanol,,,CCCC[n+]1ccn(C)c1.F[P-](F)(F)(F)(F)F,1-butyl-3-methylimidazolium hexafluorophosphate,ABChJv,CCO,ethanol,AAIsrh,CCCC[n+]1ccn(C)c1,F[P-](F)(F)(F)(F)F,2,0.4959,,,1217,False,CCCC[n+]1ccn(C)c1.F[P-](F)(F)(F)(F)F,No changes
MpgoE,333.2,100.0,1219.0,Qiao et al. (2011),Liquid,0.5041,ethanol,,,CCCC[n+]1ccn(C)c1.F[P-](F)(F)(F)(F)F,1-butyl-3-methylimidazolium hexafluorophosphate,ABChJv,CCO,ethanol,AAIsrh,CCCC[n+]1ccn(C)c1,F[P-](F)(F)(F)(F)F,2,0.4959,,,1218,False,CCCC[n+]1ccn(C)c1.F[P-](F)(F)(F)(F)F,No changes
HITfU,293.15,101.0,789.38,Iglesias-Otero et al. (2008b),Liquid,0.0,1-butyl-3-methylimidazolium tetrafluoroborate,,,CCCC[n+]1ccn(C)c1.F[B-](F)(F)F,1-butyl-3-methylimidazolium tetrafluoroborate,AArYBF,CCO,ethanol,AAIsrh,CCCC[n+]1ccn(C)c1,F[B-](F)(F)F,2,,,,1219,False,CCCC[n+]1ccn(C)c1.F[B-](F)(F)F,No changes
HITfU,293.15,101.0,854.59,Iglesias-Otero et al. (2008b),Liquid,0.0517,1-butyl-3-methylimidazolium tetrafluoroborate,,,CCCC[n+]1ccn(C)c1.F[B-](F)(F)F,1-butyl-3-methylimidazolium tetrafluoroborate,AArYBF,CCO,ethanol,AAIsrh,CCCC[n+]1ccn(C)c1,F[B-](F)(F)F,2,,,,1220,False,CCCC[n+]1ccn(C)c1.F[B-](F)(F)F,No changes
HITfU,293.15,101.0,895.67,Iglesias-Otero et al. (2008b),Liquid,0.0918,1-butyl-3-methylimidazolium tetrafluoroborate,,,CCCC[n+]1ccn(C)c1.F[B-](F)(F)F,1-butyl-3-methylimidazolium tetrafluoroborate,AArYBF,CCO,ethanol,AAIsrh,CCCC[n+]1ccn(C)c1,F[B-](F)(F)F,2,,,,1221,False,CCCC[n+]1ccn(C)c1.F[B-](F)(F)F,No changes