setid,Temperature (K),Pressure (kPa),Density (kg/m3),reference,phases,Mole fraction,Mole fraction of compound name,Weight fraction,Weight fraction of compound name,IL_SMILES,IL_name,IL_ID,Solvent_SMILES,Solvent_name,Solvent_ID,IL_cation_SMILES,IL_anion_SMILES,IL_component_number,Mole fraction of solvent,IL_MW,Solvent_MW,Record_ID,Contains_Metal,Standardized_IL_SMILES,Changes
kwBiO,308.15,101.0,1396.4,Gonzalez et al. (2013e),Liquid,0.9466,propan-2-ol,,,CCCC[n+]1cccc(C)c1.O=S(=O)([N-]S(=O)(=O)C(F)(F)F)C(F)(F)F,1-butyl-3-methylpyridinium bis[(trifluoromethyl)sulfonyl]amide,ABenCa,CC(C)O,propan-2-ol,AALcwx,CCCC[n+]1cccc(C)c1,O=S(=O)([N-]S(=O)(=O)C(F)(F)F)C(F)(F)F,2,0.0534,,,1614,False,CCCC[n+]1cccc(C)c1.O=S(=O)([N-]S(=O)(=O)C(F)(F)F)C(F)(F)F,No changes
kwBiO,298.15,101.0,1396.4,Gonzalez et al. (2013e),Liquid,0.8966,propan-2-ol,,,CCCC[n+]1cccc(C)c1.O=S(=O)([N-]S(=O)(=O)C(F)(F)F)C(F)(F)F,1-butyl-3-methylpyridinium bis[(trifluoromethyl)sulfonyl]amide,ABenCa,CC(C)O,propan-2-ol,AALcwx,CCCC[n+]1cccc(C)c1,O=S(=O)([N-]S(=O)(=O)C(F)(F)F)C(F)(F)F,2,0.1034,,,1615,False,CCCC[n+]1cccc(C)c1.O=S(=O)([N-]S(=O)(=O)C(F)(F)F)C(F)(F)F,No changes
kwBiO,303.15,101.0,1391.8,Gonzalez et al. (2013e),Liquid,0.8966,propan-2-ol,,,CCCC[n+]1cccc(C)c1.O=S(=O)([N-]S(=O)(=O)C(F)(F)F)C(F)(F)F,1-butyl-3-methylpyridinium bis[(trifluoromethyl)sulfonyl]amide,ABenCa,CC(C)O,propan-2-ol,AALcwx,CCCC[n+]1cccc(C)c1,O=S(=O)([N-]S(=O)(=O)C(F)(F)F)C(F)(F)F,2,0.1034,,,1616,False,CCCC[n+]1cccc(C)c1.O=S(=O)([N-]S(=O)(=O)C(F)(F)F)C(F)(F)F,No changes
kwBiO,308.15,101.0,1387.3,Gonzalez et al. (2013e),Liquid,0.8966,propan-2-ol,,,CCCC[n+]1cccc(C)c1.O=S(=O)([N-]S(=O)(=O)C(F)(F)F)C(F)(F)F,1-butyl-3-methylpyridinium bis[(trifluoromethyl)sulfonyl]amide,ABenCa,CC(C)O,propan-2-ol,AALcwx,CCCC[n+]1cccc(C)c1,O=S(=O)([N-]S(=O)(=O)C(F)(F)F)C(F)(F)F,2,0.1034,,,1617,False,CCCC[n+]1cccc(C)c1.O=S(=O)([N-]S(=O)(=O)C(F)(F)F)C(F)(F)F,No changes
kwBiO,298.15,101.0,1385.6,Gonzalez et al. (2013e),Liquid,0.8423,propan-2-ol,,,CCCC[n+]1cccc(C)c1.O=S(=O)([N-]S(=O)(=O)C(F)(F)F)C(F)(F)F,1-butyl-3-methylpyridinium bis[(trifluoromethyl)sulfonyl]amide,ABenCa,CC(C)O,propan-2-ol,AALcwx,CCCC[n+]1cccc(C)c1,O=S(=O)([N-]S(=O)(=O)C(F)(F)F)C(F)(F)F,2,0.1577,,,1618,False,CCCC[n+]1cccc(C)c1.O=S(=O)([N-]S(=O)(=O)C(F)(F)F)C(F)(F)F,No changes
kwBiO,303.15,101.0,1381.1,Gonzalez et al. (2013e),Liquid,0.8423,propan-2-ol,,,CCCC[n+]1cccc(C)c1.O=S(=O)([N-]S(=O)(=O)C(F)(F)F)C(F)(F)F,1-butyl-3-methylpyridinium bis[(trifluoromethyl)sulfonyl]amide,ABenCa,CC(C)O,propan-2-ol,AALcwx,CCCC[n+]1cccc(C)c1,O=S(=O)([N-]S(=O)(=O)C(F)(F)F)C(F)(F)F,2,0.1577,,,1619,False,CCCC[n+]1cccc(C)c1.O=S(=O)([N-]S(=O)(=O)C(F)(F)F)C(F)(F)F,No changes
kwBiO,308.15,101.0,1376.6,Gonzalez et al. (2013e),Liquid,0.8423,propan-2-ol,,,CCCC[n+]1cccc(C)c1.O=S(=O)([N-]S(=O)(=O)C(F)(F)F)C(F)(F)F,1-butyl-3-methylpyridinium bis[(trifluoromethyl)sulfonyl]amide,ABenCa,CC(C)O,propan-2-ol,AALcwx,CCCC[n+]1cccc(C)c1,O=S(=O)([N-]S(=O)(=O)C(F)(F)F)C(F)(F)F,2,0.1577,,,1620,False,CCCC[n+]1cccc(C)c1.O=S(=O)([N-]S(=O)(=O)C(F)(F)F)C(F)(F)F,No changes
kwBiO,298.15,101.0,1381.9,Gonzalez et al. (2013e),Liquid,0.8244,propan-2-ol,,,CCCC[n+]1cccc(C)c1.O=S(=O)([N-]S(=O)(=O)C(F)(F)F)C(F)(F)F,1-butyl-3-methylpyridinium bis[(trifluoromethyl)sulfonyl]amide,ABenCa,CC(C)O,propan-2-ol,AALcwx,CCCC[n+]1cccc(C)c1,O=S(=O)([N-]S(=O)(=O)C(F)(F)F)C(F)(F)F,2,0.1756,,,1621,False,CCCC[n+]1cccc(C)c1.O=S(=O)([N-]S(=O)(=O)C(F)(F)F)C(F)(F)F,No changes
kwBiO,303.15,101.0,1377.4,Gonzalez et al. (2013e),Liquid,0.8244,propan-2-ol,,,CCCC[n+]1cccc(C)c1.O=S(=O)([N-]S(=O)(=O)C(F)(F)F)C(F)(F)F,1-butyl-3-methylpyridinium bis[(trifluoromethyl)sulfonyl]amide,ABenCa,CC(C)O,propan-2-ol,AALcwx,CCCC[n+]1cccc(C)c1,O=S(=O)([N-]S(=O)(=O)C(F)(F)F)C(F)(F)F,2,0.1756,,,1622,False,CCCC[n+]1cccc(C)c1.O=S(=O)([N-]S(=O)(=O)C(F)(F)F)C(F)(F)F,No changes
kwBiO,308.15,101.0,1372.8,Gonzalez et al. (2013e),Liquid,0.8244,propan-2-ol,,,CCCC[n+]1cccc(C)c1.O=S(=O)([N-]S(=O)(=O)C(F)(F)F)C(F)(F)F,1-butyl-3-methylpyridinium bis[(trifluoromethyl)sulfonyl]amide,ABenCa,CC(C)O,propan-2-ol,AALcwx,CCCC[n+]1cccc(C)c1,O=S(=O)([N-]S(=O)(=O)C(F)(F)F)C(F)(F)F,2,0.1756,,,1623,False,CCCC[n+]1cccc(C)c1.O=S(=O)([N-]S(=O)(=O)C(F)(F)F)C(F)(F)F,No changes
kwBiO,298.15,101.0,1351.17,Gonzalez et al. (2013e),Liquid,0.6938,propan-2-ol,,,CCCC[n+]1cccc(C)c1.O=S(=O)([N-]S(=O)(=O)C(F)(F)F)C(F)(F)F,1-butyl-3-methylpyridinium bis[(trifluoromethyl)sulfonyl]amide,ABenCa,CC(C)O,propan-2-ol,AALcwx,CCCC[n+]1cccc(C)c1,O=S(=O)([N-]S(=O)(=O)C(F)(F)F)C(F)(F)F,2,0.3062,,,1624,False,CCCC[n+]1cccc(C)c1.O=S(=O)([N-]S(=O)(=O)C(F)(F)F)C(F)(F)F,No changes
kwBiO,303.15,101.0,1346.52,Gonzalez et al. (2013e),Liquid,0.6938,propan-2-ol,,,CCCC[n+]1cccc(C)c1.O=S(=O)([N-]S(=O)(=O)C(F)(F)F)C(F)(F)F,1-butyl-3-methylpyridinium bis[(trifluoromethyl)sulfonyl]amide,ABenCa,CC(C)O,propan-2-ol,AALcwx,CCCC[n+]1cccc(C)c1,O=S(=O)([N-]S(=O)(=O)C(F)(F)F)C(F)(F)F,2,0.3062,,,1625,False,CCCC[n+]1cccc(C)c1.O=S(=O)([N-]S(=O)(=O)C(F)(F)F)C(F)(F)F,No changes
kwBiO,308.15,101.0,1341.87,Gonzalez et al. (2013e),Liquid,0.6938,propan-2-ol,,,CCCC[n+]1cccc(C)c1.O=S(=O)([N-]S(=O)(=O)C(F)(F)F)C(F)(F)F,1-butyl-3-methylpyridinium bis[(trifluoromethyl)sulfonyl]amide,ABenCa,CC(C)O,propan-2-ol,AALcwx,CCCC[n+]1cccc(C)c1,O=S(=O)([N-]S(=O)(=O)C(F)(F)F)C(F)(F)F,2,0.3062,,,1626,False,CCCC[n+]1cccc(C)c1.O=S(=O)([N-]S(=O)(=O)C(F)(F)F)C(F)(F)F,No changes
kwBiO,298.15,101.0,1325.2,Gonzalez et al. (2013e),Liquid,0.6043000000000001,propan-2-ol,,,CCCC[n+]1cccc(C)c1.O=S(=O)([N-]S(=O)(=O)C(F)(F)F)C(F)(F)F,1-butyl-3-methylpyridinium bis[(trifluoromethyl)sulfonyl]amide,ABenCa,CC(C)O,propan-2-ol,AALcwx,CCCC[n+]1cccc(C)c1,O=S(=O)([N-]S(=O)(=O)C(F)(F)F)C(F)(F)F,2,0.3957,,,1627,False,CCCC[n+]1cccc(C)c1.O=S(=O)([N-]S(=O)(=O)C(F)(F)F)C(F)(F)F,No changes
kwBiO,303.15,101.0,1320.5,Gonzalez et al. (2013e),Liquid,0.6043000000000001,propan-2-ol,,,CCCC[n+]1cccc(C)c1.O=S(=O)([N-]S(=O)(=O)C(F)(F)F)C(F)(F)F,1-butyl-3-methylpyridinium bis[(trifluoromethyl)sulfonyl]amide,ABenCa,CC(C)O,propan-2-ol,AALcwx,CCCC[n+]1cccc(C)c1,O=S(=O)([N-]S(=O)(=O)C(F)(F)F)C(F)(F)F,2,0.3957,,,1628,False,CCCC[n+]1cccc(C)c1.O=S(=O)([N-]S(=O)(=O)C(F)(F)F)C(F)(F)F,No changes
kwBiO,308.15,101.0,1315.8,Gonzalez et al. (2013e),Liquid,0.6043000000000001,propan-2-ol,,,CCCC[n+]1cccc(C)c1.O=S(=O)([N-]S(=O)(=O)C(F)(F)F)C(F)(F)F,1-butyl-3-methylpyridinium bis[(trifluoromethyl)sulfonyl]amide,ABenCa,CC(C)O,propan-2-ol,AALcwx,CCCC[n+]1cccc(C)c1,O=S(=O)([N-]S(=O)(=O)C(F)(F)F)C(F)(F)F,2,0.3957,,,1629,False,CCCC[n+]1cccc(C)c1.O=S(=O)([N-]S(=O)(=O)C(F)(F)F)C(F)(F)F,No changes
kwBiO,298.15,101.0,1283.48,Gonzalez et al. (2013e),Liquid,0.49,propan-2-ol,,,CCCC[n+]1cccc(C)c1.O=S(=O)([N-]S(=O)(=O)C(F)(F)F)C(F)(F)F,1-butyl-3-methylpyridinium bis[(trifluoromethyl)sulfonyl]amide,ABenCa,CC(C)O,propan-2-ol,AALcwx,CCCC[n+]1cccc(C)c1,O=S(=O)([N-]S(=O)(=O)C(F)(F)F)C(F)(F)F,2,0.51,,,1630,False,CCCC[n+]1cccc(C)c1.O=S(=O)([N-]S(=O)(=O)C(F)(F)F)C(F)(F)F,No changes
kwBiO,303.15,101.0,1278.76,Gonzalez et al. (2013e),Liquid,0.49,propan-2-ol,,,CCCC[n+]1cccc(C)c1.O=S(=O)([N-]S(=O)(=O)C(F)(F)F)C(F)(F)F,1-butyl-3-methylpyridinium bis[(trifluoromethyl)sulfonyl]amide,ABenCa,CC(C)O,propan-2-ol,AALcwx,CCCC[n+]1cccc(C)c1,O=S(=O)([N-]S(=O)(=O)C(F)(F)F)C(F)(F)F,2,0.51,,,1631,False,CCCC[n+]1cccc(C)c1.O=S(=O)([N-]S(=O)(=O)C(F)(F)F)C(F)(F)F,No changes
kwBiO,308.15,101.0,1274.2,Gonzalez et al. (2013e),Liquid,0.49,propan-2-ol,,,CCCC[n+]1cccc(C)c1.O=S(=O)([N-]S(=O)(=O)C(F)(F)F)C(F)(F)F,1-butyl-3-methylpyridinium bis[(trifluoromethyl)sulfonyl]amide,ABenCa,CC(C)O,propan-2-ol,AALcwx,CCCC[n+]1cccc(C)c1,O=S(=O)([N-]S(=O)(=O)C(F)(F)F)C(F)(F)F,2,0.51,,,1632,False,CCCC[n+]1cccc(C)c1.O=S(=O)([N-]S(=O)(=O)C(F)(F)F)C(F)(F)F,No changes
kwBiO,298.15,101.0,1241.53,Gonzalez et al. (2013e),Liquid,0.3998,propan-2-ol,,,CCCC[n+]1cccc(C)c1.O=S(=O)([N-]S(=O)(=O)C(F)(F)F)C(F)(F)F,1-butyl-3-methylpyridinium bis[(trifluoromethyl)sulfonyl]amide,ABenCa,CC(C)O,propan-2-ol,AALcwx,CCCC[n+]1cccc(C)c1,O=S(=O)([N-]S(=O)(=O)C(F)(F)F)C(F)(F)F,2,0.6002,,,1633,False,CCCC[n+]1cccc(C)c1.O=S(=O)([N-]S(=O)(=O)C(F)(F)F)C(F)(F)F,No changes
kwBiO,303.15,101.0,1236.99,Gonzalez et al. (2013e),Liquid,0.3998,propan-2-ol,,,CCCC[n+]1cccc(C)c1.O=S(=O)([N-]S(=O)(=O)C(F)(F)F)C(F)(F)F,1-butyl-3-methylpyridinium bis[(trifluoromethyl)sulfonyl]amide,ABenCa,CC(C)O,propan-2-ol,AALcwx,CCCC[n+]1cccc(C)c1,O=S(=O)([N-]S(=O)(=O)C(F)(F)F)C(F)(F)F,2,0.6002,,,1634,False,CCCC[n+]1cccc(C)c1.O=S(=O)([N-]S(=O)(=O)C(F)(F)F)C(F)(F)F,No changes
kwBiO,308.15,101.0,1232.16,Gonzalez et al. (2013e),Liquid,0.3998,propan-2-ol,,,CCCC[n+]1cccc(C)c1.O=S(=O)([N-]S(=O)(=O)C(F)(F)F)C(F)(F)F,1-butyl-3-methylpyridinium bis[(trifluoromethyl)sulfonyl]amide,ABenCa,CC(C)O,propan-2-ol,AALcwx,CCCC[n+]1cccc(C)c1,O=S(=O)([N-]S(=O)(=O)C(F)(F)F)C(F)(F)F,2,0.6002,,,1635,False,CCCC[n+]1cccc(C)c1.O=S(=O)([N-]S(=O)(=O)C(F)(F)F)C(F)(F)F,No changes
kwBiO,298.15,101.0,1177.92,Gonzalez et al. (2013e),Liquid,0.2954,propan-2-ol,,,CCCC[n+]1cccc(C)c1.O=S(=O)([N-]S(=O)(=O)C(F)(F)F)C(F)(F)F,1-butyl-3-methylpyridinium bis[(trifluoromethyl)sulfonyl]amide,ABenCa,CC(C)O,propan-2-ol,AALcwx,CCCC[n+]1cccc(C)c1,O=S(=O)([N-]S(=O)(=O)C(F)(F)F)C(F)(F)F,2,0.7046,,,1636,False,CCCC[n+]1cccc(C)c1.O=S(=O)([N-]S(=O)(=O)C(F)(F)F)C(F)(F)F,No changes
kwBiO,303.15,101.0,1173.18,Gonzalez et al. (2013e),Liquid,0.2954,propan-2-ol,,,CCCC[n+]1cccc(C)c1.O=S(=O)([N-]S(=O)(=O)C(F)(F)F)C(F)(F)F,1-butyl-3-methylpyridinium bis[(trifluoromethyl)sulfonyl]amide,ABenCa,CC(C)O,propan-2-ol,AALcwx,CCCC[n+]1cccc(C)c1,O=S(=O)([N-]S(=O)(=O)C(F)(F)F)C(F)(F)F,2,0.7046,,,1637,False,CCCC[n+]1cccc(C)c1.O=S(=O)([N-]S(=O)(=O)C(F)(F)F)C(F)(F)F,No changes
kwBiO,308.15,101.0,1168.43,Gonzalez et al. (2013e),Liquid,0.2954,propan-2-ol,,,CCCC[n+]1cccc(C)c1.O=S(=O)([N-]S(=O)(=O)C(F)(F)F)C(F)(F)F,1-butyl-3-methylpyridinium bis[(trifluoromethyl)sulfonyl]amide,ABenCa,CC(C)O,propan-2-ol,AALcwx,CCCC[n+]1cccc(C)c1,O=S(=O)([N-]S(=O)(=O)C(F)(F)F)C(F)(F)F,2,0.7046,,,1638,False,CCCC[n+]1cccc(C)c1.O=S(=O)([N-]S(=O)(=O)C(F)(F)F)C(F)(F)F,No changes
kwBiO,298.15,101.0,1098.0,Gonzalez et al. (2013e),Liquid,0.1994,propan-2-ol,,,CCCC[n+]1cccc(C)c1.O=S(=O)([N-]S(=O)(=O)C(F)(F)F)C(F)(F)F,1-butyl-3-methylpyridinium bis[(trifluoromethyl)sulfonyl]amide,ABenCa,CC(C)O,propan-2-ol,AALcwx,CCCC[n+]1cccc(C)c1,O=S(=O)([N-]S(=O)(=O)C(F)(F)F)C(F)(F)F,2,0.8006,,,1639,False,CCCC[n+]1cccc(C)c1.O=S(=O)([N-]S(=O)(=O)C(F)(F)F)C(F)(F)F,No changes
kwBiO,303.15,101.0,1093.12,Gonzalez et al. (2013e),Liquid,0.1994,propan-2-ol,,,CCCC[n+]1cccc(C)c1.O=S(=O)([N-]S(=O)(=O)C(F)(F)F)C(F)(F)F,1-butyl-3-methylpyridinium bis[(trifluoromethyl)sulfonyl]amide,ABenCa,CC(C)O,propan-2-ol,AALcwx,CCCC[n+]1cccc(C)c1,O=S(=O)([N-]S(=O)(=O)C(F)(F)F)C(F)(F)F,2,0.8006,,,1640,False,CCCC[n+]1cccc(C)c1.O=S(=O)([N-]S(=O)(=O)C(F)(F)F)C(F)(F)F,No changes
kwBiO,308.15,101.0,1088.31,Gonzalez et al. (2013e),Liquid,0.1994,propan-2-ol,,,CCCC[n+]1cccc(C)c1.O=S(=O)([N-]S(=O)(=O)C(F)(F)F)C(F)(F)F,1-butyl-3-methylpyridinium bis[(trifluoromethyl)sulfonyl]amide,ABenCa,CC(C)O,propan-2-ol,AALcwx,CCCC[n+]1cccc(C)c1,O=S(=O)([N-]S(=O)(=O)C(F)(F)F)C(F)(F)F,2,0.8006,,,1641,False,CCCC[n+]1cccc(C)c1.O=S(=O)([N-]S(=O)(=O)C(F)(F)F)C(F)(F)F,No changes
kwBiO,298.15,101.0,978.71,Gonzalez et al. (2013e),Liquid,0.1011999999999999,propan-2-ol,,,CCCC[n+]1cccc(C)c1.O=S(=O)([N-]S(=O)(=O)C(F)(F)F)C(F)(F)F,1-butyl-3-methylpyridinium bis[(trifluoromethyl)sulfonyl]amide,ABenCa,CC(C)O,propan-2-ol,AALcwx,CCCC[n+]1cccc(C)c1,O=S(=O)([N-]S(=O)(=O)C(F)(F)F)C(F)(F)F,2,0.8988,,,1642,False,CCCC[n+]1cccc(C)c1.O=S(=O)([N-]S(=O)(=O)C(F)(F)F)C(F)(F)F,No changes
kwBiO,303.15,101.0,974.13,Gonzalez et al. (2013e),Liquid,0.1011999999999999,propan-2-ol,,,CCCC[n+]1cccc(C)c1.O=S(=O)([N-]S(=O)(=O)C(F)(F)F)C(F)(F)F,1-butyl-3-methylpyridinium bis[(trifluoromethyl)sulfonyl]amide,ABenCa,CC(C)O,propan-2-ol,AALcwx,CCCC[n+]1cccc(C)c1,O=S(=O)([N-]S(=O)(=O)C(F)(F)F)C(F)(F)F,2,0.8988,,,1643,False,CCCC[n+]1cccc(C)c1.O=S(=O)([N-]S(=O)(=O)C(F)(F)F)C(F)(F)F,No changes
kwBiO,308.15,101.0,969.49,Gonzalez et al. (2013e),Liquid,0.1011999999999999,propan-2-ol,,,CCCC[n+]1cccc(C)c1.O=S(=O)([N-]S(=O)(=O)C(F)(F)F)C(F)(F)F,1-butyl-3-methylpyridinium bis[(trifluoromethyl)sulfonyl]amide,ABenCa,CC(C)O,propan-2-ol,AALcwx,CCCC[n+]1cccc(C)c1,O=S(=O)([N-]S(=O)(=O)C(F)(F)F)C(F)(F)F,2,0.8988,,,1644,False,CCCC[n+]1cccc(C)c1.O=S(=O)([N-]S(=O)(=O)C(F)(F)F)C(F)(F)F,No changes
kwBiO,298.15,101.0,781.06,Gonzalez et al. (2013e),Liquid,0.0,propan-2-ol,,,CCCC[n+]1cccc(C)c1.O=S(=O)([N-]S(=O)(=O)C(F)(F)F)C(F)(F)F,1-butyl-3-methylpyridinium bis[(trifluoromethyl)sulfonyl]amide,ABenCa,CC(C)O,propan-2-ol,AALcwx,CCCC[n+]1cccc(C)c1,O=S(=O)([N-]S(=O)(=O)C(F)(F)F)C(F)(F)F,2,1.0,,,1645,False,CCCC[n+]1cccc(C)c1.O=S(=O)([N-]S(=O)(=O)C(F)(F)F)C(F)(F)F,No changes
kwBiO,303.15,101.0,776.8,Gonzalez et al. (2013e),Liquid,0.0,propan-2-ol,,,CCCC[n+]1cccc(C)c1.O=S(=O)([N-]S(=O)(=O)C(F)(F)F)C(F)(F)F,1-butyl-3-methylpyridinium bis[(trifluoromethyl)sulfonyl]amide,ABenCa,CC(C)O,propan-2-ol,AALcwx,CCCC[n+]1cccc(C)c1,O=S(=O)([N-]S(=O)(=O)C(F)(F)F)C(F)(F)F,2,1.0,,,1646,False,CCCC[n+]1cccc(C)c1.O=S(=O)([N-]S(=O)(=O)C(F)(F)F)C(F)(F)F,No changes
kwBiO,308.15,101.0,772.46,Gonzalez et al. (2013e),Liquid,0.0,propan-2-ol,,,CCCC[n+]1cccc(C)c1.O=S(=O)([N-]S(=O)(=O)C(F)(F)F)C(F)(F)F,1-butyl-3-methylpyridinium bis[(trifluoromethyl)sulfonyl]amide,ABenCa,CC(C)O,propan-2-ol,AALcwx,CCCC[n+]1cccc(C)c1,O=S(=O)([N-]S(=O)(=O)C(F)(F)F)C(F)(F)F,2,1.0,,,1647,False,CCCC[n+]1cccc(C)c1.O=S(=O)([N-]S(=O)(=O)C(F)(F)F)C(F)(F)F,No changes
aQqZQ,298.15,101.0,1474.44,Gomez et al. (2012),Liquid,1.0,propan-2-ol,,,CCCn1cc[n+](C)c1.O=S(=O)([N-]S(=O)(=O)C(F)(F)F)C(F)(F)F,1-methyl-3-propylimidazolium bis[(trifluoromethyl)sulfonyl]imide,ABZxGx,CC(C)O,propan-2-ol,AALcwx,CCCn1cc[n+](C)c1,O=S(=O)([N-]S(=O)(=O)C(F)(F)F)C(F)(F)F,2,0.0,,,1648,False,CCCn1cc[n+](C)c1.O=S(=O)([N-]S(=O)(=O)C(F)(F)F)C(F)(F)F,No changes
aQqZQ,298.15,101.0,1463.7,Gomez et al. (2012),Liquid,0.9507,propan-2-ol,,,CCCn1cc[n+](C)c1.O=S(=O)([N-]S(=O)(=O)C(F)(F)F)C(F)(F)F,1-methyl-3-propylimidazolium bis[(trifluoromethyl)sulfonyl]imide,ABZxGx,CC(C)O,propan-2-ol,AALcwx,CCCn1cc[n+](C)c1,O=S(=O)([N-]S(=O)(=O)C(F)(F)F)C(F)(F)F,2,0.0493,,,1649,False,CCCn1cc[n+](C)c1.O=S(=O)([N-]S(=O)(=O)C(F)(F)F)C(F)(F)F,No changes
aQqZQ,298.15,101.0,1454.1,Gomez et al. (2012),Liquid,0.9079,propan-2-ol,,,CCCn1cc[n+](C)c1.O=S(=O)([N-]S(=O)(=O)C(F)(F)F)C(F)(F)F,1-methyl-3-propylimidazolium bis[(trifluoromethyl)sulfonyl]imide,ABZxGx,CC(C)O,propan-2-ol,AALcwx,CCCn1cc[n+](C)c1,O=S(=O)([N-]S(=O)(=O)C(F)(F)F)C(F)(F)F,2,0.0921,,,1650,False,CCCn1cc[n+](C)c1.O=S(=O)([N-]S(=O)(=O)C(F)(F)F)C(F)(F)F,No changes
aQqZQ,298.15,101.0,1401.23,Gomez et al. (2012),Liquid,0.7090000000000001,propan-2-ol,,,CCCn1cc[n+](C)c1.O=S(=O)([N-]S(=O)(=O)C(F)(F)F)C(F)(F)F,1-methyl-3-propylimidazolium bis[(trifluoromethyl)sulfonyl]imide,ABZxGx,CC(C)O,propan-2-ol,AALcwx,CCCn1cc[n+](C)c1,O=S(=O)([N-]S(=O)(=O)C(F)(F)F)C(F)(F)F,2,0.291,,,1651,False,CCCn1cc[n+](C)c1.O=S(=O)([N-]S(=O)(=O)C(F)(F)F)C(F)(F)F,No changes
aQqZQ,298.15,101.0,1360.46,Gomez et al. (2012),Liquid,0.5907,propan-2-ol,,,CCCn1cc[n+](C)c1.O=S(=O)([N-]S(=O)(=O)C(F)(F)F)C(F)(F)F,1-methyl-3-propylimidazolium bis[(trifluoromethyl)sulfonyl]imide,ABZxGx,CC(C)O,propan-2-ol,AALcwx,CCCn1cc[n+](C)c1,O=S(=O)([N-]S(=O)(=O)C(F)(F)F)C(F)(F)F,2,0.4093,,,1652,False,CCCn1cc[n+](C)c1.O=S(=O)([N-]S(=O)(=O)C(F)(F)F)C(F)(F)F,No changes
aQqZQ,298.15,101.0,1318.46,Gomez et al. (2012),Liquid,0.4929,propan-2-ol,,,CCCn1cc[n+](C)c1.O=S(=O)([N-]S(=O)(=O)C(F)(F)F)C(F)(F)F,1-methyl-3-propylimidazolium bis[(trifluoromethyl)sulfonyl]imide,ABZxGx,CC(C)O,propan-2-ol,AALcwx,CCCn1cc[n+](C)c1,O=S(=O)([N-]S(=O)(=O)C(F)(F)F)C(F)(F)F,2,0.5071,,,1653,False,CCCn1cc[n+](C)c1.O=S(=O)([N-]S(=O)(=O)C(F)(F)F)C(F)(F)F,No changes
aQqZQ,298.15,101.0,1262.2,Gomez et al. (2012),Liquid,0.3887,propan-2-ol,,,CCCn1cc[n+](C)c1.O=S(=O)([N-]S(=O)(=O)C(F)(F)F)C(F)(F)F,1-methyl-3-propylimidazolium bis[(trifluoromethyl)sulfonyl]imide,ABZxGx,CC(C)O,propan-2-ol,AALcwx,CCCn1cc[n+](C)c1,O=S(=O)([N-]S(=O)(=O)C(F)(F)F)C(F)(F)F,2,0.6113,,,1654,False,CCCn1cc[n+](C)c1.O=S(=O)([N-]S(=O)(=O)C(F)(F)F)C(F)(F)F,No changes
aQqZQ,298.15,101.0,1203.91,Gomez et al. (2012),Liquid,0.3036,propan-2-ol,,,CCCn1cc[n+](C)c1.O=S(=O)([N-]S(=O)(=O)C(F)(F)F)C(F)(F)F,1-methyl-3-propylimidazolium bis[(trifluoromethyl)sulfonyl]imide,ABZxGx,CC(C)O,propan-2-ol,AALcwx,CCCn1cc[n+](C)c1,O=S(=O)([N-]S(=O)(=O)C(F)(F)F)C(F)(F)F,2,0.6964,,,1655,False,CCCn1cc[n+](C)c1.O=S(=O)([N-]S(=O)(=O)C(F)(F)F)C(F)(F)F,No changes
aQqZQ,298.15,101.0,1106.76,Gomez et al. (2012),Liquid,0.1969999999999999,propan-2-ol,,,CCCn1cc[n+](C)c1.O=S(=O)([N-]S(=O)(=O)C(F)(F)F)C(F)(F)F,1-methyl-3-propylimidazolium bis[(trifluoromethyl)sulfonyl]imide,ABZxGx,CC(C)O,propan-2-ol,AALcwx,CCCn1cc[n+](C)c1,O=S(=O)([N-]S(=O)(=O)C(F)(F)F)C(F)(F)F,2,0.803,,,1656,False,CCCn1cc[n+](C)c1.O=S(=O)([N-]S(=O)(=O)C(F)(F)F)C(F)(F)F,No changes
aQqZQ,298.15,101.0,979.02,Gomez et al. (2012),Liquid,0.0990999999999999,propan-2-ol,,,CCCn1cc[n+](C)c1.O=S(=O)([N-]S(=O)(=O)C(F)(F)F)C(F)(F)F,1-methyl-3-propylimidazolium bis[(trifluoromethyl)sulfonyl]imide,ABZxGx,CC(C)O,propan-2-ol,AALcwx,CCCn1cc[n+](C)c1,O=S(=O)([N-]S(=O)(=O)C(F)(F)F)C(F)(F)F,2,0.9009,,,1657,False,CCCn1cc[n+](C)c1.O=S(=O)([N-]S(=O)(=O)C(F)(F)F)C(F)(F)F,No changes
aQqZQ,298.15,101.0,892.06,Gomez et al. (2012),Liquid,0.0496999999999999,propan-2-ol,,,CCCn1cc[n+](C)c1.O=S(=O)([N-]S(=O)(=O)C(F)(F)F)C(F)(F)F,1-methyl-3-propylimidazolium bis[(trifluoromethyl)sulfonyl]imide,ABZxGx,CC(C)O,propan-2-ol,AALcwx,CCCn1cc[n+](C)c1,O=S(=O)([N-]S(=O)(=O)C(F)(F)F)C(F)(F)F,2,0.9503,,,1658,False,CCCn1cc[n+](C)c1.O=S(=O)([N-]S(=O)(=O)C(F)(F)F)C(F)(F)F,No changes
aQqZQ,298.15,101.0,780.98,Gomez et al. (2012),Liquid,0.0,propan-2-ol,,,CCCn1cc[n+](C)c1.O=S(=O)([N-]S(=O)(=O)C(F)(F)F)C(F)(F)F,1-methyl-3-propylimidazolium bis[(trifluoromethyl)sulfonyl]imide,ABZxGx,CC(C)O,propan-2-ol,AALcwx,CCCn1cc[n+](C)c1,O=S(=O)([N-]S(=O)(=O)C(F)(F)F)C(F)(F)F,2,1.0,,,1659,False,CCCn1cc[n+](C)c1.O=S(=O)([N-]S(=O)(=O)C(F)(F)F)C(F)(F)F,No changes
vzhHF,298.15,101.0,1316.64,Andreatta et al. (2010a),Liquid,0.9669,propan-2-ol,,,CCCCCCCCn1cc[n+](C)c1.O=S(=O)([N-]S(=O)(=O)C(F)(F)F)C(F)(F)F,1-methyl-3-octylimidazolium bis(trifluoromethylsulfonyl)imide,ABnWNT,CC(C)O,propan-2-ol,AALcwx,CCCCCCCCn1cc[n+](C)c1,O=S(=O)([N-]S(=O)(=O)C(F)(F)F)C(F)(F)F,2,0.0331,,,1660,False,CCCCCCCCn1cc[n+](C)c1.O=S(=O)([N-]S(=O)(=O)C(F)(F)F)C(F)(F)F,No changes
vzhHF,298.15,101.0,1312.4,Andreatta et al. (2010a),Liquid,0.934,propan-2-ol,,,CCCCCCCCn1cc[n+](C)c1.O=S(=O)([N-]S(=O)(=O)C(F)(F)F)C(F)(F)F,1-methyl-3-octylimidazolium bis(trifluoromethylsulfonyl)imide,ABnWNT,CC(C)O,propan-2-ol,AALcwx,CCCCCCCCn1cc[n+](C)c1,O=S(=O)([N-]S(=O)(=O)C(F)(F)F)C(F)(F)F,2,0.066,,,1661,False,CCCCCCCCn1cc[n+](C)c1.O=S(=O)([N-]S(=O)(=O)C(F)(F)F)C(F)(F)F,No changes
vzhHF,298.15,101.0,1307.22,Andreatta et al. (2010a),Liquid,0.895,propan-2-ol,,,CCCCCCCCn1cc[n+](C)c1.O=S(=O)([N-]S(=O)(=O)C(F)(F)F)C(F)(F)F,1-methyl-3-octylimidazolium bis(trifluoromethylsulfonyl)imide,ABnWNT,CC(C)O,propan-2-ol,AALcwx,CCCCCCCCn1cc[n+](C)c1,O=S(=O)([N-]S(=O)(=O)C(F)(F)F)C(F)(F)F,2,0.105,,,1662,False,CCCCCCCCn1cc[n+](C)c1.O=S(=O)([N-]S(=O)(=O)C(F)(F)F)C(F)(F)F,No changes
vzhHF,298.15,101.0,1295.84,Andreatta et al. (2010a),Liquid,0.8177,propan-2-ol,,,CCCCCCCCn1cc[n+](C)c1.O=S(=O)([N-]S(=O)(=O)C(F)(F)F)C(F)(F)F,1-methyl-3-octylimidazolium bis(trifluoromethylsulfonyl)imide,ABnWNT,CC(C)O,propan-2-ol,AALcwx,CCCCCCCCn1cc[n+](C)c1,O=S(=O)([N-]S(=O)(=O)C(F)(F)F)C(F)(F)F,2,0.1823,,,1663,False,CCCCCCCCn1cc[n+](C)c1.O=S(=O)([N-]S(=O)(=O)C(F)(F)F)C(F)(F)F,No changes
vzhHF,298.15,101.0,1280.29,Andreatta et al. (2010a),Liquid,0.7268,propan-2-ol,,,CCCCCCCCn1cc[n+](C)c1.O=S(=O)([N-]S(=O)(=O)C(F)(F)F)C(F)(F)F,1-methyl-3-octylimidazolium bis(trifluoromethylsulfonyl)imide,ABnWNT,CC(C)O,propan-2-ol,AALcwx,CCCCCCCCn1cc[n+](C)c1,O=S(=O)([N-]S(=O)(=O)C(F)(F)F)C(F)(F)F,2,0.2732,,,1664,False,CCCCCCCCn1cc[n+](C)c1.O=S(=O)([N-]S(=O)(=O)C(F)(F)F)C(F)(F)F,No changes