setid,Temperature (K),Pressure (kPa),Density (kg/m3),reference,phases,Mole fraction,Mole fraction of compound name,Weight fraction,Weight fraction of compound name,IL_SMILES,IL_name,IL_ID,Solvent_SMILES,Solvent_name,Solvent_ID,IL_cation_SMILES,IL_anion_SMILES,IL_component_number,Mole fraction of solvent,IL_MW,Solvent_MW,Record_ID,Contains_Metal,Standardized_IL_SMILES,Changes
vzhHF,298.15,101.0,1269.48,Andreatta et al. (2010a),Liquid,0.6716,propan-2-ol,,,CCCCCCCCn1cc[n+](C)c1.O=S(=O)([N-]S(=O)(=O)C(F)(F)F)C(F)(F)F,1-methyl-3-octylimidazolium bis(trifluoromethylsulfonyl)imide,ABnWNT,CC(C)O,propan-2-ol,AALcwx,CCCCCCCCn1cc[n+](C)c1,O=S(=O)([N-]S(=O)(=O)C(F)(F)F)C(F)(F)F,2,0.3284,,,1665,False,CCCCCCCCn1cc[n+](C)c1.O=S(=O)([N-]S(=O)(=O)C(F)(F)F)C(F)(F)F,No changes
vzhHF,298.15,101.0,1250.9,Andreatta et al. (2010a),Liquid,0.5903,propan-2-ol,,,CCCCCCCCn1cc[n+](C)c1.O=S(=O)([N-]S(=O)(=O)C(F)(F)F)C(F)(F)F,1-methyl-3-octylimidazolium bis(trifluoromethylsulfonyl)imide,ABnWNT,CC(C)O,propan-2-ol,AALcwx,CCCCCCCCn1cc[n+](C)c1,O=S(=O)([N-]S(=O)(=O)C(F)(F)F)C(F)(F)F,2,0.4097,,,1666,False,CCCCCCCCn1cc[n+](C)c1.O=S(=O)([N-]S(=O)(=O)C(F)(F)F)C(F)(F)F,No changes
vzhHF,298.15,101.0,1224.1,Andreatta et al. (2010a),Liquid,0.4945,propan-2-ol,,,CCCCCCCCn1cc[n+](C)c1.O=S(=O)([N-]S(=O)(=O)C(F)(F)F)C(F)(F)F,1-methyl-3-octylimidazolium bis(trifluoromethylsulfonyl)imide,ABnWNT,CC(C)O,propan-2-ol,AALcwx,CCCCCCCCn1cc[n+](C)c1,O=S(=O)([N-]S(=O)(=O)C(F)(F)F)C(F)(F)F,2,0.5055,,,1667,False,CCCCCCCCn1cc[n+](C)c1.O=S(=O)([N-]S(=O)(=O)C(F)(F)F)C(F)(F)F,No changes
vzhHF,298.15,101.0,1196.4,Andreatta et al. (2010a),Liquid,0.4152,propan-2-ol,,,CCCCCCCCn1cc[n+](C)c1.O=S(=O)([N-]S(=O)(=O)C(F)(F)F)C(F)(F)F,1-methyl-3-octylimidazolium bis(trifluoromethylsulfonyl)imide,ABnWNT,CC(C)O,propan-2-ol,AALcwx,CCCCCCCCn1cc[n+](C)c1,O=S(=O)([N-]S(=O)(=O)C(F)(F)F)C(F)(F)F,2,0.5848,,,1668,False,CCCCCCCCn1cc[n+](C)c1.O=S(=O)([N-]S(=O)(=O)C(F)(F)F)C(F)(F)F,No changes
vzhHF,298.15,101.0,1156.0,Andreatta et al. (2010a),Liquid,0.3253,propan-2-ol,,,CCCCCCCCn1cc[n+](C)c1.O=S(=O)([N-]S(=O)(=O)C(F)(F)F)C(F)(F)F,1-methyl-3-octylimidazolium bis(trifluoromethylsulfonyl)imide,ABnWNT,CC(C)O,propan-2-ol,AALcwx,CCCCCCCCn1cc[n+](C)c1,O=S(=O)([N-]S(=O)(=O)C(F)(F)F)C(F)(F)F,2,0.6747,,,1669,False,CCCCCCCCn1cc[n+](C)c1.O=S(=O)([N-]S(=O)(=O)C(F)(F)F)C(F)(F)F,No changes
vzhHF,298.15,101.0,1087.5,Andreatta et al. (2010a),Liquid,0.2168,propan-2-ol,,,CCCCCCCCn1cc[n+](C)c1.O=S(=O)([N-]S(=O)(=O)C(F)(F)F)C(F)(F)F,1-methyl-3-octylimidazolium bis(trifluoromethylsulfonyl)imide,ABnWNT,CC(C)O,propan-2-ol,AALcwx,CCCCCCCCn1cc[n+](C)c1,O=S(=O)([N-]S(=O)(=O)C(F)(F)F)C(F)(F)F,2,0.7832,,,1670,False,CCCCCCCCn1cc[n+](C)c1.O=S(=O)([N-]S(=O)(=O)C(F)(F)F)C(F)(F)F,No changes
vzhHF,298.15,101.0,972.5,Andreatta et al. (2010a),Liquid,0.1034,propan-2-ol,,,CCCCCCCCn1cc[n+](C)c1.O=S(=O)([N-]S(=O)(=O)C(F)(F)F)C(F)(F)F,1-methyl-3-octylimidazolium bis(trifluoromethylsulfonyl)imide,ABnWNT,CC(C)O,propan-2-ol,AALcwx,CCCCCCCCn1cc[n+](C)c1,O=S(=O)([N-]S(=O)(=O)C(F)(F)F)C(F)(F)F,2,0.8966,,,1671,False,CCCCCCCCn1cc[n+](C)c1.O=S(=O)([N-]S(=O)(=O)C(F)(F)F)C(F)(F)F,No changes
EbsWx,298.15,101.0,1013.4,Gonzalez et al. (2013b),Liquid,1.0,propan-2-ol,,,CCCC[N+]1(C)CCCC1.N#C[N-]C#N,1-butyl-1-methylpyrrolidinium dicyanamide,AAoDPb,CC(C)O,propan-2-ol,AALcwx,CCCC[N+]1(C)CCCC1,N#C[N-]C#N,2,0.0,,,1672,False,CCCC[N+]1(C)CCCC1.N#C[N-]C#N,No changes
EbsWx,298.15,101.0,1009.8,Gonzalez et al. (2013b),Liquid,0.9534,propan-2-ol,,,CCCC[N+]1(C)CCCC1.N#C[N-]C#N,1-butyl-1-methylpyrrolidinium dicyanamide,AAoDPb,CC(C)O,propan-2-ol,AALcwx,CCCC[N+]1(C)CCCC1,N#C[N-]C#N,2,0.0466,,,1673,False,CCCC[N+]1(C)CCCC1.N#C[N-]C#N,No changes
EbsWx,298.15,101.0,1006.48,Gonzalez et al. (2013b),Liquid,0.9104,propan-2-ol,,,CCCC[N+]1(C)CCCC1.N#C[N-]C#N,1-butyl-1-methylpyrrolidinium dicyanamide,AAoDPb,CC(C)O,propan-2-ol,AALcwx,CCCC[N+]1(C)CCCC1,N#C[N-]C#N,2,0.0896,,,1674,False,CCCC[N+]1(C)CCCC1.N#C[N-]C#N,No changes
EbsWx,298.15,101.0,998.07,Gonzalez et al. (2013b),Liquid,0.8150999999999999,propan-2-ol,,,CCCC[N+]1(C)CCCC1.N#C[N-]C#N,1-butyl-1-methylpyrrolidinium dicyanamide,AAoDPb,CC(C)O,propan-2-ol,AALcwx,CCCC[N+]1(C)CCCC1,N#C[N-]C#N,2,0.1849,,,1675,False,CCCC[N+]1(C)CCCC1.N#C[N-]C#N,No changes
EbsWx,298.15,101.0,986.58,Gonzalez et al. (2013b),Liquid,0.7033,propan-2-ol,,,CCCC[N+]1(C)CCCC1.N#C[N-]C#N,1-butyl-1-methylpyrrolidinium dicyanamide,AAoDPb,CC(C)O,propan-2-ol,AALcwx,CCCC[N+]1(C)CCCC1,N#C[N-]C#N,2,0.2967,,,1676,False,CCCC[N+]1(C)CCCC1.N#C[N-]C#N,No changes
EbsWx,298.15,101.0,973.01,Gonzalez et al. (2013b),Liquid,0.5961000000000001,propan-2-ol,,,CCCC[N+]1(C)CCCC1.N#C[N-]C#N,1-butyl-1-methylpyrrolidinium dicyanamide,AAoDPb,CC(C)O,propan-2-ol,AALcwx,CCCC[N+]1(C)CCCC1,N#C[N-]C#N,2,0.4039,,,1677,False,CCCC[N+]1(C)CCCC1.N#C[N-]C#N,No changes
EbsWx,298.15,101.0,957.29,Gonzalez et al. (2013b),Liquid,0.4943999999999999,propan-2-ol,,,CCCC[N+]1(C)CCCC1.N#C[N-]C#N,1-butyl-1-methylpyrrolidinium dicyanamide,AAoDPb,CC(C)O,propan-2-ol,AALcwx,CCCC[N+]1(C)CCCC1,N#C[N-]C#N,2,0.5056,,,1678,False,CCCC[N+]1(C)CCCC1.N#C[N-]C#N,No changes
EbsWx,298.15,101.0,938.71,Gonzalez et al. (2013b),Liquid,0.3982,propan-2-ol,,,CCCC[N+]1(C)CCCC1.N#C[N-]C#N,1-butyl-1-methylpyrrolidinium dicyanamide,AAoDPb,CC(C)O,propan-2-ol,AALcwx,CCCC[N+]1(C)CCCC1,N#C[N-]C#N,2,0.6018,,,1679,False,CCCC[N+]1(C)CCCC1.N#C[N-]C#N,No changes
EbsWx,298.15,101.0,914.91,Gonzalez et al. (2013b),Liquid,0.3003,propan-2-ol,,,CCCC[N+]1(C)CCCC1.N#C[N-]C#N,1-butyl-1-methylpyrrolidinium dicyanamide,AAoDPb,CC(C)O,propan-2-ol,AALcwx,CCCC[N+]1(C)CCCC1,N#C[N-]C#N,2,0.6997,,,1680,False,CCCC[N+]1(C)CCCC1.N#C[N-]C#N,No changes
EbsWx,298.15,101.0,880.81,Gonzalez et al. (2013b),Liquid,0.1934,propan-2-ol,,,CCCC[N+]1(C)CCCC1.N#C[N-]C#N,1-butyl-1-methylpyrrolidinium dicyanamide,AAoDPb,CC(C)O,propan-2-ol,AALcwx,CCCC[N+]1(C)CCCC1,N#C[N-]C#N,2,0.8066,,,1681,False,CCCC[N+]1(C)CCCC1.N#C[N-]C#N,No changes
EbsWx,298.15,101.0,845.27,Gonzalez et al. (2013b),Liquid,0.1079999999999999,propan-2-ol,,,CCCC[N+]1(C)CCCC1.N#C[N-]C#N,1-butyl-1-methylpyrrolidinium dicyanamide,AAoDPb,CC(C)O,propan-2-ol,AALcwx,CCCC[N+]1(C)CCCC1,N#C[N-]C#N,2,0.892,,,1682,False,CCCC[N+]1(C)CCCC1.N#C[N-]C#N,No changes
EbsWx,298.15,101.0,816.97,Gonzalez et al. (2013b),Liquid,0.0538999999999999,propan-2-ol,,,CCCC[N+]1(C)CCCC1.N#C[N-]C#N,1-butyl-1-methylpyrrolidinium dicyanamide,AAoDPb,CC(C)O,propan-2-ol,AALcwx,CCCC[N+]1(C)CCCC1,N#C[N-]C#N,2,0.9461,,,1683,False,CCCC[N+]1(C)CCCC1.N#C[N-]C#N,No changes
EbsWx,298.15,101.0,781.6,Gonzalez et al. (2013b),Liquid,0.0,propan-2-ol,,,CCCC[N+]1(C)CCCC1.N#C[N-]C#N,1-butyl-1-methylpyrrolidinium dicyanamide,AAoDPb,CC(C)O,propan-2-ol,AALcwx,CCCC[N+]1(C)CCCC1,N#C[N-]C#N,2,1.0,,,1684,False,CCCC[N+]1(C)CCCC1.N#C[N-]C#N,No changes
EbsWx,313.15,101.0,1005.1,Gonzalez et al. (2013b),Liquid,1.0,propan-2-ol,,,CCCC[N+]1(C)CCCC1.N#C[N-]C#N,1-butyl-1-methylpyrrolidinium dicyanamide,AAoDPb,CC(C)O,propan-2-ol,AALcwx,CCCC[N+]1(C)CCCC1,N#C[N-]C#N,2,0.0,,,1685,False,CCCC[N+]1(C)CCCC1.N#C[N-]C#N,No changes
EbsWx,313.15,101.0,1001.4,Gonzalez et al. (2013b),Liquid,0.9534,propan-2-ol,,,CCCC[N+]1(C)CCCC1.N#C[N-]C#N,1-butyl-1-methylpyrrolidinium dicyanamide,AAoDPb,CC(C)O,propan-2-ol,AALcwx,CCCC[N+]1(C)CCCC1,N#C[N-]C#N,2,0.0466,,,1686,False,CCCC[N+]1(C)CCCC1.N#C[N-]C#N,No changes
EbsWx,313.15,101.0,998.03,Gonzalez et al. (2013b),Liquid,0.9104,propan-2-ol,,,CCCC[N+]1(C)CCCC1.N#C[N-]C#N,1-butyl-1-methylpyrrolidinium dicyanamide,AAoDPb,CC(C)O,propan-2-ol,AALcwx,CCCC[N+]1(C)CCCC1,N#C[N-]C#N,2,0.0896,,,1687,False,CCCC[N+]1(C)CCCC1.N#C[N-]C#N,No changes
EbsWx,313.15,101.0,989.52,Gonzalez et al. (2013b),Liquid,0.8150999999999999,propan-2-ol,,,CCCC[N+]1(C)CCCC1.N#C[N-]C#N,1-butyl-1-methylpyrrolidinium dicyanamide,AAoDPb,CC(C)O,propan-2-ol,AALcwx,CCCC[N+]1(C)CCCC1,N#C[N-]C#N,2,0.1849,,,1688,False,CCCC[N+]1(C)CCCC1.N#C[N-]C#N,No changes
EbsWx,313.15,101.0,977.87,Gonzalez et al. (2013b),Liquid,0.7033,propan-2-ol,,,CCCC[N+]1(C)CCCC1.N#C[N-]C#N,1-butyl-1-methylpyrrolidinium dicyanamide,AAoDPb,CC(C)O,propan-2-ol,AALcwx,CCCC[N+]1(C)CCCC1,N#C[N-]C#N,2,0.2967,,,1689,False,CCCC[N+]1(C)CCCC1.N#C[N-]C#N,No changes
EbsWx,313.15,101.0,964.14,Gonzalez et al. (2013b),Liquid,0.5961000000000001,propan-2-ol,,,CCCC[N+]1(C)CCCC1.N#C[N-]C#N,1-butyl-1-methylpyrrolidinium dicyanamide,AAoDPb,CC(C)O,propan-2-ol,AALcwx,CCCC[N+]1(C)CCCC1,N#C[N-]C#N,2,0.4039,,,1690,False,CCCC[N+]1(C)CCCC1.N#C[N-]C#N,No changes
EbsWx,313.15,101.0,948.21,Gonzalez et al. (2013b),Liquid,0.4943999999999999,propan-2-ol,,,CCCC[N+]1(C)CCCC1.N#C[N-]C#N,1-butyl-1-methylpyrrolidinium dicyanamide,AAoDPb,CC(C)O,propan-2-ol,AALcwx,CCCC[N+]1(C)CCCC1,N#C[N-]C#N,2,0.5056,,,1691,False,CCCC[N+]1(C)CCCC1.N#C[N-]C#N,No changes
EbsWx,313.15,101.0,929.31,Gonzalez et al. (2013b),Liquid,0.3982,propan-2-ol,,,CCCC[N+]1(C)CCCC1.N#C[N-]C#N,1-butyl-1-methylpyrrolidinium dicyanamide,AAoDPb,CC(C)O,propan-2-ol,AALcwx,CCCC[N+]1(C)CCCC1,N#C[N-]C#N,2,0.6018,,,1692,False,CCCC[N+]1(C)CCCC1.N#C[N-]C#N,No changes
EbsWx,313.15,101.0,905.08,Gonzalez et al. (2013b),Liquid,0.3003,propan-2-ol,,,CCCC[N+]1(C)CCCC1.N#C[N-]C#N,1-butyl-1-methylpyrrolidinium dicyanamide,AAoDPb,CC(C)O,propan-2-ol,AALcwx,CCCC[N+]1(C)CCCC1,N#C[N-]C#N,2,0.6997,,,1693,False,CCCC[N+]1(C)CCCC1.N#C[N-]C#N,No changes
EbsWx,313.15,101.0,870.32,Gonzalez et al. (2013b),Liquid,0.1934,propan-2-ol,,,CCCC[N+]1(C)CCCC1.N#C[N-]C#N,1-butyl-1-methylpyrrolidinium dicyanamide,AAoDPb,CC(C)O,propan-2-ol,AALcwx,CCCC[N+]1(C)CCCC1,N#C[N-]C#N,2,0.8066,,,1694,False,CCCC[N+]1(C)CCCC1.N#C[N-]C#N,No changes
EbsWx,313.15,101.0,834.02,Gonzalez et al. (2013b),Liquid,0.1079999999999999,propan-2-ol,,,CCCC[N+]1(C)CCCC1.N#C[N-]C#N,1-butyl-1-methylpyrrolidinium dicyanamide,AAoDPb,CC(C)O,propan-2-ol,AALcwx,CCCC[N+]1(C)CCCC1,N#C[N-]C#N,2,0.892,,,1695,False,CCCC[N+]1(C)CCCC1.N#C[N-]C#N,No changes
EbsWx,313.15,101.0,805.04,Gonzalez et al. (2013b),Liquid,0.0538999999999999,propan-2-ol,,,CCCC[N+]1(C)CCCC1.N#C[N-]C#N,1-butyl-1-methylpyrrolidinium dicyanamide,AAoDPb,CC(C)O,propan-2-ol,AALcwx,CCCC[N+]1(C)CCCC1,N#C[N-]C#N,2,0.9461,,,1696,False,CCCC[N+]1(C)CCCC1.N#C[N-]C#N,No changes
EbsWx,313.15,101.0,768.51,Gonzalez et al. (2013b),Liquid,0.0,propan-2-ol,,,CCCC[N+]1(C)CCCC1.N#C[N-]C#N,1-butyl-1-methylpyrrolidinium dicyanamide,AAoDPb,CC(C)O,propan-2-ol,AALcwx,CCCC[N+]1(C)CCCC1,N#C[N-]C#N,2,1.0,,,1697,False,CCCC[N+]1(C)CCCC1.N#C[N-]C#N,No changes
EbsWx,328.15,101.0,996.8,Gonzalez et al. (2013b),Liquid,1.0,propan-2-ol,,,CCCC[N+]1(C)CCCC1.N#C[N-]C#N,1-butyl-1-methylpyrrolidinium dicyanamide,AAoDPb,CC(C)O,propan-2-ol,AALcwx,CCCC[N+]1(C)CCCC1,N#C[N-]C#N,2,0.0,,,1698,False,CCCC[N+]1(C)CCCC1.N#C[N-]C#N,No changes
EbsWx,328.15,101.0,993.1,Gonzalez et al. (2013b),Liquid,0.9534,propan-2-ol,,,CCCC[N+]1(C)CCCC1.N#C[N-]C#N,1-butyl-1-methylpyrrolidinium dicyanamide,AAoDPb,CC(C)O,propan-2-ol,AALcwx,CCCC[N+]1(C)CCCC1,N#C[N-]C#N,2,0.0466,,,1699,False,CCCC[N+]1(C)CCCC1.N#C[N-]C#N,No changes
EbsWx,328.15,101.0,989.71,Gonzalez et al. (2013b),Liquid,0.9104,propan-2-ol,,,CCCC[N+]1(C)CCCC1.N#C[N-]C#N,1-butyl-1-methylpyrrolidinium dicyanamide,AAoDPb,CC(C)O,propan-2-ol,AALcwx,CCCC[N+]1(C)CCCC1,N#C[N-]C#N,2,0.0896,,,1700,False,CCCC[N+]1(C)CCCC1.N#C[N-]C#N,No changes
EbsWx,328.15,101.0,981.08,Gonzalez et al. (2013b),Liquid,0.8150999999999999,propan-2-ol,,,CCCC[N+]1(C)CCCC1.N#C[N-]C#N,1-butyl-1-methylpyrrolidinium dicyanamide,AAoDPb,CC(C)O,propan-2-ol,AALcwx,CCCC[N+]1(C)CCCC1,N#C[N-]C#N,2,0.1849,,,1701,False,CCCC[N+]1(C)CCCC1.N#C[N-]C#N,No changes
EbsWx,328.15,101.0,969.27,Gonzalez et al. (2013b),Liquid,0.7033,propan-2-ol,,,CCCC[N+]1(C)CCCC1.N#C[N-]C#N,1-butyl-1-methylpyrrolidinium dicyanamide,AAoDPb,CC(C)O,propan-2-ol,AALcwx,CCCC[N+]1(C)CCCC1,N#C[N-]C#N,2,0.2967,,,1702,False,CCCC[N+]1(C)CCCC1.N#C[N-]C#N,No changes
EbsWx,328.15,101.0,955.35,Gonzalez et al. (2013b),Liquid,0.5961000000000001,propan-2-ol,,,CCCC[N+]1(C)CCCC1.N#C[N-]C#N,1-butyl-1-methylpyrrolidinium dicyanamide,AAoDPb,CC(C)O,propan-2-ol,AALcwx,CCCC[N+]1(C)CCCC1,N#C[N-]C#N,2,0.4039,,,1703,False,CCCC[N+]1(C)CCCC1.N#C[N-]C#N,No changes
EbsWx,328.15,101.0,939.15,Gonzalez et al. (2013b),Liquid,0.4943999999999999,propan-2-ol,,,CCCC[N+]1(C)CCCC1.N#C[N-]C#N,1-butyl-1-methylpyrrolidinium dicyanamide,AAoDPb,CC(C)O,propan-2-ol,AALcwx,CCCC[N+]1(C)CCCC1,N#C[N-]C#N,2,0.5056,,,1704,False,CCCC[N+]1(C)CCCC1.N#C[N-]C#N,No changes
EbsWx,328.15,101.0,919.94,Gonzalez et al. (2013b),Liquid,0.3982,propan-2-ol,,,CCCC[N+]1(C)CCCC1.N#C[N-]C#N,1-butyl-1-methylpyrrolidinium dicyanamide,AAoDPb,CC(C)O,propan-2-ol,AALcwx,CCCC[N+]1(C)CCCC1,N#C[N-]C#N,2,0.6018,,,1705,False,CCCC[N+]1(C)CCCC1.N#C[N-]C#N,No changes
EbsWx,328.15,101.0,895.24,Gonzalez et al. (2013b),Liquid,0.3003,propan-2-ol,,,CCCC[N+]1(C)CCCC1.N#C[N-]C#N,1-butyl-1-methylpyrrolidinium dicyanamide,AAoDPb,CC(C)O,propan-2-ol,AALcwx,CCCC[N+]1(C)CCCC1,N#C[N-]C#N,2,0.6997,,,1706,False,CCCC[N+]1(C)CCCC1.N#C[N-]C#N,No changes
EbsWx,328.15,101.0,859.73,Gonzalez et al. (2013b),Liquid,0.1934,propan-2-ol,,,CCCC[N+]1(C)CCCC1.N#C[N-]C#N,1-butyl-1-methylpyrrolidinium dicyanamide,AAoDPb,CC(C)O,propan-2-ol,AALcwx,CCCC[N+]1(C)CCCC1,N#C[N-]C#N,2,0.8066,,,1707,False,CCCC[N+]1(C)CCCC1.N#C[N-]C#N,No changes
EbsWx,328.15,101.0,822.5,Gonzalez et al. (2013b),Liquid,0.1079999999999999,propan-2-ol,,,CCCC[N+]1(C)CCCC1.N#C[N-]C#N,1-butyl-1-methylpyrrolidinium dicyanamide,AAoDPb,CC(C)O,propan-2-ol,AALcwx,CCCC[N+]1(C)CCCC1,N#C[N-]C#N,2,0.892,,,1708,False,CCCC[N+]1(C)CCCC1.N#C[N-]C#N,No changes
EbsWx,328.15,101.0,792.61,Gonzalez et al. (2013b),Liquid,0.0538999999999999,propan-2-ol,,,CCCC[N+]1(C)CCCC1.N#C[N-]C#N,1-butyl-1-methylpyrrolidinium dicyanamide,AAoDPb,CC(C)O,propan-2-ol,AALcwx,CCCC[N+]1(C)CCCC1,N#C[N-]C#N,2,0.9461,,,1709,False,CCCC[N+]1(C)CCCC1.N#C[N-]C#N,No changes
EbsWx,328.15,101.0,754.55,Gonzalez et al. (2013b),Liquid,0.0,propan-2-ol,,,CCCC[N+]1(C)CCCC1.N#C[N-]C#N,1-butyl-1-methylpyrrolidinium dicyanamide,AAoDPb,CC(C)O,propan-2-ol,AALcwx,CCCC[N+]1(C)CCCC1,N#C[N-]C#N,2,1.0,,,1710,False,CCCC[N+]1(C)CCCC1.N#C[N-]C#N,No changes
gLwlG,298.15,101.3,1371.9,Gonzalez et al. (2012a),Liquid,1.0,propan-2-ol,,,CCCCCC[n+]1ccn(C)c1.O=S(=O)([N-]S(=O)(=O)C(F)(F)F)C(F)(F)F,1-hexyl-3-methylimidazolium bis[(trifluoromethyl)sulfonyl]imide,ABiCtA,CC(C)O,propan-2-ol,AALcwx,CCCCCC[n+]1ccn(C)c1,O=S(=O)([N-]S(=O)(=O)C(F)(F)F)C(F)(F)F,2,0.0,,,1711,False,CCCCCC[n+]1ccn(C)c1.O=S(=O)([N-]S(=O)(=O)C(F)(F)F)C(F)(F)F,No changes
gLwlG,298.15,101.3,1362.6,Gonzalez et al. (2012a),Liquid,0.9379,propan-2-ol,,,CCCCCC[n+]1ccn(C)c1.O=S(=O)([N-]S(=O)(=O)C(F)(F)F)C(F)(F)F,1-hexyl-3-methylimidazolium bis[(trifluoromethyl)sulfonyl]imide,ABiCtA,CC(C)O,propan-2-ol,AALcwx,CCCCCC[n+]1ccn(C)c1,O=S(=O)([N-]S(=O)(=O)C(F)(F)F)C(F)(F)F,2,0.0621,,,1712,False,CCCCCC[n+]1ccn(C)c1.O=S(=O)([N-]S(=O)(=O)C(F)(F)F)C(F)(F)F,No changes
gLwlG,298.15,101.3,1357.8,Gonzalez et al. (2012a),Liquid,0.9074,propan-2-ol,,,CCCCCC[n+]1ccn(C)c1.O=S(=O)([N-]S(=O)(=O)C(F)(F)F)C(F)(F)F,1-hexyl-3-methylimidazolium bis[(trifluoromethyl)sulfonyl]imide,ABiCtA,CC(C)O,propan-2-ol,AALcwx,CCCCCC[n+]1ccn(C)c1,O=S(=O)([N-]S(=O)(=O)C(F)(F)F)C(F)(F)F,2,0.0926,,,1713,False,CCCCCC[n+]1ccn(C)c1.O=S(=O)([N-]S(=O)(=O)C(F)(F)F)C(F)(F)F,No changes
gLwlG,298.15,101.3,1343.9,Gonzalez et al. (2012a),Liquid,0.8275,propan-2-ol,,,CCCCCC[n+]1ccn(C)c1.O=S(=O)([N-]S(=O)(=O)C(F)(F)F)C(F)(F)F,1-hexyl-3-methylimidazolium bis[(trifluoromethyl)sulfonyl]imide,ABiCtA,CC(C)O,propan-2-ol,AALcwx,CCCCCC[n+]1ccn(C)c1,O=S(=O)([N-]S(=O)(=O)C(F)(F)F)C(F)(F)F,2,0.1725,,,1714,False,CCCCCC[n+]1ccn(C)c1.O=S(=O)([N-]S(=O)(=O)C(F)(F)F)C(F)(F)F,No changes
gLwlG,298.15,101.3,1319.1,Gonzalez et al. (2012a),Liquid,0.7074,propan-2-ol,,,CCCCCC[n+]1ccn(C)c1.O=S(=O)([N-]S(=O)(=O)C(F)(F)F)C(F)(F)F,1-hexyl-3-methylimidazolium bis[(trifluoromethyl)sulfonyl]imide,ABiCtA,CC(C)O,propan-2-ol,AALcwx,CCCCCC[n+]1ccn(C)c1,O=S(=O)([N-]S(=O)(=O)C(F)(F)F)C(F)(F)F,2,0.2926,,,1715,False,CCCCCC[n+]1ccn(C)c1.O=S(=O)([N-]S(=O)(=O)C(F)(F)F)C(F)(F)F,No changes
gLwlG,298.15,101.3,1297.0,Gonzalez et al. (2012a),Liquid,0.62,propan-2-ol,,,CCCCCC[n+]1ccn(C)c1.O=S(=O)([N-]S(=O)(=O)C(F)(F)F)C(F)(F)F,1-hexyl-3-methylimidazolium bis[(trifluoromethyl)sulfonyl]imide,ABiCtA,CC(C)O,propan-2-ol,AALcwx,CCCCCC[n+]1ccn(C)c1,O=S(=O)([N-]S(=O)(=O)C(F)(F)F)C(F)(F)F,2,0.38,,,1716,False,CCCCCC[n+]1ccn(C)c1.O=S(=O)([N-]S(=O)(=O)C(F)(F)F)C(F)(F)F,No changes
gLwlG,298.15,101.3,1255.4,Gonzalez et al. (2012a),Liquid,0.4892999999999999,propan-2-ol,,,CCCCCC[n+]1ccn(C)c1.O=S(=O)([N-]S(=O)(=O)C(F)(F)F)C(F)(F)F,1-hexyl-3-methylimidazolium bis[(trifluoromethyl)sulfonyl]imide,ABiCtA,CC(C)O,propan-2-ol,AALcwx,CCCCCC[n+]1ccn(C)c1,O=S(=O)([N-]S(=O)(=O)C(F)(F)F)C(F)(F)F,2,0.5107,,,1717,False,CCCCCC[n+]1ccn(C)c1.O=S(=O)([N-]S(=O)(=O)C(F)(F)F)C(F)(F)F,No changes
gLwlG,298.15,101.3,1214.3,Gonzalez et al. (2012a),Liquid,0.3922,propan-2-ol,,,CCCCCC[n+]1ccn(C)c1.O=S(=O)([N-]S(=O)(=O)C(F)(F)F)C(F)(F)F,1-hexyl-3-methylimidazolium bis[(trifluoromethyl)sulfonyl]imide,ABiCtA,CC(C)O,propan-2-ol,AALcwx,CCCCCC[n+]1ccn(C)c1,O=S(=O)([N-]S(=O)(=O)C(F)(F)F)C(F)(F)F,2,0.6078,,,1718,False,CCCCCC[n+]1ccn(C)c1.O=S(=O)([N-]S(=O)(=O)C(F)(F)F)C(F)(F)F,No changes
gLwlG,298.15,101.3,1161.6,Gonzalez et al. (2012a),Liquid,0.2972,propan-2-ol,,,CCCCCC[n+]1ccn(C)c1.O=S(=O)([N-]S(=O)(=O)C(F)(F)F)C(F)(F)F,1-hexyl-3-methylimidazolium bis[(trifluoromethyl)sulfonyl]imide,ABiCtA,CC(C)O,propan-2-ol,AALcwx,CCCCCC[n+]1ccn(C)c1,O=S(=O)([N-]S(=O)(=O)C(F)(F)F)C(F)(F)F,2,0.7028,,,1719,False,CCCCCC[n+]1ccn(C)c1.O=S(=O)([N-]S(=O)(=O)C(F)(F)F)C(F)(F)F,No changes
gLwlG,298.15,101.3,1081.0,Gonzalez et al. (2012a),Liquid,0.1936,propan-2-ol,,,CCCCCC[n+]1ccn(C)c1.O=S(=O)([N-]S(=O)(=O)C(F)(F)F)C(F)(F)F,1-hexyl-3-methylimidazolium bis[(trifluoromethyl)sulfonyl]imide,ABiCtA,CC(C)O,propan-2-ol,AALcwx,CCCCCC[n+]1ccn(C)c1,O=S(=O)([N-]S(=O)(=O)C(F)(F)F)C(F)(F)F,2,0.8064,,,1720,False,CCCCCC[n+]1ccn(C)c1.O=S(=O)([N-]S(=O)(=O)C(F)(F)F)C(F)(F)F,No changes
gLwlG,298.15,101.3,964.8,Gonzalez et al. (2012a),Liquid,0.0948,propan-2-ol,,,CCCCCC[n+]1ccn(C)c1.O=S(=O)([N-]S(=O)(=O)C(F)(F)F)C(F)(F)F,1-hexyl-3-methylimidazolium bis[(trifluoromethyl)sulfonyl]imide,ABiCtA,CC(C)O,propan-2-ol,AALcwx,CCCCCC[n+]1ccn(C)c1,O=S(=O)([N-]S(=O)(=O)C(F)(F)F)C(F)(F)F,2,0.9052,,,1721,False,CCCCCC[n+]1ccn(C)c1.O=S(=O)([N-]S(=O)(=O)C(F)(F)F)C(F)(F)F,No changes
gLwlG,298.15,101.3,895.5,Gonzalez et al. (2012a),Liquid,0.0526999999999999,propan-2-ol,,,CCCCCC[n+]1ccn(C)c1.O=S(=O)([N-]S(=O)(=O)C(F)(F)F)C(F)(F)F,1-hexyl-3-methylimidazolium bis[(trifluoromethyl)sulfonyl]imide,ABiCtA,CC(C)O,propan-2-ol,AALcwx,CCCCCC[n+]1ccn(C)c1,O=S(=O)([N-]S(=O)(=O)C(F)(F)F)C(F)(F)F,2,0.9473,,,1722,False,CCCCCC[n+]1ccn(C)c1.O=S(=O)([N-]S(=O)(=O)C(F)(F)F)C(F)(F)F,No changes
gLwlG,298.15,101.3,780.9,Gonzalez et al. (2012a),Liquid,0.0,propan-2-ol,,,CCCCCC[n+]1ccn(C)c1.O=S(=O)([N-]S(=O)(=O)C(F)(F)F)C(F)(F)F,1-hexyl-3-methylimidazolium bis[(trifluoromethyl)sulfonyl]imide,ABiCtA,CC(C)O,propan-2-ol,AALcwx,CCCCCC[n+]1ccn(C)c1,O=S(=O)([N-]S(=O)(=O)C(F)(F)F)C(F)(F)F,2,1.0,,,1723,False,CCCCCC[n+]1ccn(C)c1.O=S(=O)([N-]S(=O)(=O)C(F)(F)F)C(F)(F)F,No changes
gLwlG,313.15,101.3,1358.2,Gonzalez et al. (2012a),Liquid,1.0,propan-2-ol,,,CCCCCC[n+]1ccn(C)c1.O=S(=O)([N-]S(=O)(=O)C(F)(F)F)C(F)(F)F,1-hexyl-3-methylimidazolium bis[(trifluoromethyl)sulfonyl]imide,ABiCtA,CC(C)O,propan-2-ol,AALcwx,CCCCCC[n+]1ccn(C)c1,O=S(=O)([N-]S(=O)(=O)C(F)(F)F)C(F)(F)F,2,0.0,,,1724,False,CCCCCC[n+]1ccn(C)c1.O=S(=O)([N-]S(=O)(=O)C(F)(F)F)C(F)(F)F,No changes
gLwlG,313.15,101.3,1348.9,Gonzalez et al. (2012a),Liquid,0.9379,propan-2-ol,,,CCCCCC[n+]1ccn(C)c1.O=S(=O)([N-]S(=O)(=O)C(F)(F)F)C(F)(F)F,1-hexyl-3-methylimidazolium bis[(trifluoromethyl)sulfonyl]imide,ABiCtA,CC(C)O,propan-2-ol,AALcwx,CCCCCC[n+]1ccn(C)c1,O=S(=O)([N-]S(=O)(=O)C(F)(F)F)C(F)(F)F,2,0.0621,,,1725,False,CCCCCC[n+]1ccn(C)c1.O=S(=O)([N-]S(=O)(=O)C(F)(F)F)C(F)(F)F,No changes