setid,Temperature (K),Pressure (kPa),Density (kg/m3),reference,phases,Mole fraction,Mole fraction of compound name,Weight fraction,Weight fraction of compound name,IL_SMILES,IL_name,IL_ID,Solvent_SMILES,Solvent_name,Solvent_ID,IL_cation_SMILES,IL_anion_SMILES,IL_component_number,Mole fraction of solvent,IL_MW,Solvent_MW,Record_ID,Contains_Metal,Standardized_IL_SMILES,Changes
KCXSZ,313.15,101.0,801.7,Gonzalez et al. (2007),Liquid,0.0293999999999999,propan-2-ol,,,CC[n+]1ccn(C)c1.CCOS(=O)(=O)[O-],1-ethyl-3-methylimidazolium ethyl sulfate,AAtWDT,CC(C)O,propan-2-ol,AALcwx,CC[n+]1ccn(C)c1,CCOS(=O)(=O)[O-],2,0.9706,,,1560,False,CC[n+]1ccn(C)c1.CCOS(=O)(=O)[O-],No changes
KCXSZ,313.15,101.0,767.8,Gonzalez et al. (2007),Liquid,0.0,propan-2-ol,,,CC[n+]1ccn(C)c1.CCOS(=O)(=O)[O-],1-ethyl-3-methylimidazolium ethyl sulfate,AAtWDT,CC(C)O,propan-2-ol,AALcwx,CC[n+]1ccn(C)c1,CCOS(=O)(=O)[O-],2,1.0,,,1561,False,CC[n+]1ccn(C)c1.CCOS(=O)(=O)[O-],No changes
KCXSZ,328.15,101.0,1217.5,Gonzalez et al. (2007),Liquid,1.0,propan-2-ol,,,CC[n+]1ccn(C)c1.CCOS(=O)(=O)[O-],1-ethyl-3-methylimidazolium ethyl sulfate,AAtWDT,CC(C)O,propan-2-ol,AALcwx,CC[n+]1ccn(C)c1,CCOS(=O)(=O)[O-],2,0.0,,,1562,False,CC[n+]1ccn(C)c1.CCOS(=O)(=O)[O-],No changes
KCXSZ,328.15,101.0,1194.5,Gonzalez et al. (2007),Liquid,0.8772,propan-2-ol,,,CC[n+]1ccn(C)c1.CCOS(=O)(=O)[O-],1-ethyl-3-methylimidazolium ethyl sulfate,AAtWDT,CC(C)O,propan-2-ol,AALcwx,CC[n+]1ccn(C)c1,CCOS(=O)(=O)[O-],2,0.1228,,,1563,False,CC[n+]1ccn(C)c1.CCOS(=O)(=O)[O-],No changes
KCXSZ,328.15,101.0,1176.3,Gonzalez et al. (2007),Liquid,0.7934,propan-2-ol,,,CC[n+]1ccn(C)c1.CCOS(=O)(=O)[O-],1-ethyl-3-methylimidazolium ethyl sulfate,AAtWDT,CC(C)O,propan-2-ol,AALcwx,CC[n+]1ccn(C)c1,CCOS(=O)(=O)[O-],2,0.2066,,,1564,False,CC[n+]1ccn(C)c1.CCOS(=O)(=O)[O-],No changes
KCXSZ,328.15,101.0,1150.7,Gonzalez et al. (2007),Liquid,0.6910000000000001,propan-2-ol,,,CC[n+]1ccn(C)c1.CCOS(=O)(=O)[O-],1-ethyl-3-methylimidazolium ethyl sulfate,AAtWDT,CC(C)O,propan-2-ol,AALcwx,CC[n+]1ccn(C)c1,CCOS(=O)(=O)[O-],2,0.309,,,1565,False,CC[n+]1ccn(C)c1.CCOS(=O)(=O)[O-],No changes
KCXSZ,328.15,101.0,1124.3,Gonzalez et al. (2007),Liquid,0.601,propan-2-ol,,,CC[n+]1ccn(C)c1.CCOS(=O)(=O)[O-],1-ethyl-3-methylimidazolium ethyl sulfate,AAtWDT,CC(C)O,propan-2-ol,AALcwx,CC[n+]1ccn(C)c1,CCOS(=O)(=O)[O-],2,0.399,,,1566,False,CC[n+]1ccn(C)c1.CCOS(=O)(=O)[O-],No changes
KCXSZ,328.15,101.0,1090.7,Gonzalez et al. (2007),Liquid,0.5023,propan-2-ol,,,CC[n+]1ccn(C)c1.CCOS(=O)(=O)[O-],1-ethyl-3-methylimidazolium ethyl sulfate,AAtWDT,CC(C)O,propan-2-ol,AALcwx,CC[n+]1ccn(C)c1,CCOS(=O)(=O)[O-],2,0.4977,,,1567,False,CC[n+]1ccn(C)c1.CCOS(=O)(=O)[O-],No changes
KCXSZ,328.15,101.0,1032.6,Gonzalez et al. (2007),Liquid,0.3659,propan-2-ol,,,CC[n+]1ccn(C)c1.CCOS(=O)(=O)[O-],1-ethyl-3-methylimidazolium ethyl sulfate,AAtWDT,CC(C)O,propan-2-ol,AALcwx,CC[n+]1ccn(C)c1,CCOS(=O)(=O)[O-],2,0.6341,,,1568,False,CC[n+]1ccn(C)c1.CCOS(=O)(=O)[O-],No changes
KCXSZ,328.15,101.0,986.2,Gonzalez et al. (2007),Liquid,0.2776999999999999,propan-2-ol,,,CC[n+]1ccn(C)c1.CCOS(=O)(=O)[O-],1-ethyl-3-methylimidazolium ethyl sulfate,AAtWDT,CC(C)O,propan-2-ol,AALcwx,CC[n+]1ccn(C)c1,CCOS(=O)(=O)[O-],2,0.7223,,,1569,False,CC[n+]1ccn(C)c1.CCOS(=O)(=O)[O-],No changes
KCXSZ,328.15,101.0,896.6,Gonzalez et al. (2007),Liquid,0.1449,propan-2-ol,,,CC[n+]1ccn(C)c1.CCOS(=O)(=O)[O-],1-ethyl-3-methylimidazolium ethyl sulfate,AAtWDT,CC(C)O,propan-2-ol,AALcwx,CC[n+]1ccn(C)c1,CCOS(=O)(=O)[O-],2,0.8551,,,1570,False,CC[n+]1ccn(C)c1.CCOS(=O)(=O)[O-],No changes
KCXSZ,328.15,101.0,788.5,Gonzalez et al. (2007),Liquid,0.0293999999999999,propan-2-ol,,,CC[n+]1ccn(C)c1.CCOS(=O)(=O)[O-],1-ethyl-3-methylimidazolium ethyl sulfate,AAtWDT,CC(C)O,propan-2-ol,AALcwx,CC[n+]1ccn(C)c1,CCOS(=O)(=O)[O-],2,0.9706,,,1571,False,CC[n+]1ccn(C)c1.CCOS(=O)(=O)[O-],No changes
KCXSZ,328.15,101.0,753.9,Gonzalez et al. (2007),Liquid,0.0,propan-2-ol,,,CC[n+]1ccn(C)c1.CCOS(=O)(=O)[O-],1-ethyl-3-methylimidazolium ethyl sulfate,AAtWDT,CC(C)O,propan-2-ol,AALcwx,CC[n+]1ccn(C)c1,CCOS(=O)(=O)[O-],2,1.0,,,1572,False,CC[n+]1ccn(C)c1.CCOS(=O)(=O)[O-],No changes
kgdVt,298.15,101.0,1394.5,Gonzalez et al. (2013e),Liquid,1.0,propan-2-ol,,,CCCC[N+]1(C)CCCC1.O=S(=O)([N-]S(=O)(=O)C(F)(F)F)C(F)(F)F,1-butyl-1-methylpyrrolidinium bis[(trifluoromethyl)sulfonyl]imide,ABdMNo,CC(C)O,propan-2-ol,AALcwx,CCCC[N+]1(C)CCCC1,O=S(=O)([N-]S(=O)(=O)C(F)(F)F)C(F)(F)F,2,0.0,,,1573,False,CCCC[N+]1(C)CCCC1.O=S(=O)([N-]S(=O)(=O)C(F)(F)F)C(F)(F)F,No changes
kgdVt,303.15,101.0,1390.1,Gonzalez et al. (2013e),Liquid,1.0,propan-2-ol,,,CCCC[N+]1(C)CCCC1.O=S(=O)([N-]S(=O)(=O)C(F)(F)F)C(F)(F)F,1-butyl-1-methylpyrrolidinium bis[(trifluoromethyl)sulfonyl]imide,ABdMNo,CC(C)O,propan-2-ol,AALcwx,CCCC[N+]1(C)CCCC1,O=S(=O)([N-]S(=O)(=O)C(F)(F)F)C(F)(F)F,2,0.0,,,1574,False,CCCC[N+]1(C)CCCC1.O=S(=O)([N-]S(=O)(=O)C(F)(F)F)C(F)(F)F,No changes
kgdVt,308.15,101.0,1385.7,Gonzalez et al. (2013e),Liquid,1.0,propan-2-ol,,,CCCC[N+]1(C)CCCC1.O=S(=O)([N-]S(=O)(=O)C(F)(F)F)C(F)(F)F,1-butyl-1-methylpyrrolidinium bis[(trifluoromethyl)sulfonyl]imide,ABdMNo,CC(C)O,propan-2-ol,AALcwx,CCCC[N+]1(C)CCCC1,O=S(=O)([N-]S(=O)(=O)C(F)(F)F)C(F)(F)F,2,0.0,,,1575,False,CCCC[N+]1(C)CCCC1.O=S(=O)([N-]S(=O)(=O)C(F)(F)F)C(F)(F)F,No changes
kgdVt,298.15,101.0,1384.7,Gonzalez et al. (2013e),Liquid,0.9407,propan-2-ol,,,CCCC[N+]1(C)CCCC1.O=S(=O)([N-]S(=O)(=O)C(F)(F)F)C(F)(F)F,1-butyl-1-methylpyrrolidinium bis[(trifluoromethyl)sulfonyl]imide,ABdMNo,CC(C)O,propan-2-ol,AALcwx,CCCC[N+]1(C)CCCC1,O=S(=O)([N-]S(=O)(=O)C(F)(F)F)C(F)(F)F,2,0.0593,,,1576,False,CCCC[N+]1(C)CCCC1.O=S(=O)([N-]S(=O)(=O)C(F)(F)F)C(F)(F)F,No changes
kgdVt,303.15,101.0,1380.3,Gonzalez et al. (2013e),Liquid,0.9407,propan-2-ol,,,CCCC[N+]1(C)CCCC1.O=S(=O)([N-]S(=O)(=O)C(F)(F)F)C(F)(F)F,1-butyl-1-methylpyrrolidinium bis[(trifluoromethyl)sulfonyl]imide,ABdMNo,CC(C)O,propan-2-ol,AALcwx,CCCC[N+]1(C)CCCC1,O=S(=O)([N-]S(=O)(=O)C(F)(F)F)C(F)(F)F,2,0.0593,,,1577,False,CCCC[N+]1(C)CCCC1.O=S(=O)([N-]S(=O)(=O)C(F)(F)F)C(F)(F)F,No changes
kgdVt,308.15,101.0,1375.9,Gonzalez et al. (2013e),Liquid,0.9407,propan-2-ol,,,CCCC[N+]1(C)CCCC1.O=S(=O)([N-]S(=O)(=O)C(F)(F)F)C(F)(F)F,1-butyl-1-methylpyrrolidinium bis[(trifluoromethyl)sulfonyl]imide,ABdMNo,CC(C)O,propan-2-ol,AALcwx,CCCC[N+]1(C)CCCC1,O=S(=O)([N-]S(=O)(=O)C(F)(F)F)C(F)(F)F,2,0.0593,,,1578,False,CCCC[N+]1(C)CCCC1.O=S(=O)([N-]S(=O)(=O)C(F)(F)F)C(F)(F)F,No changes
kgdVt,298.15,101.0,1371.7,Gonzalez et al. (2013e),Liquid,0.8681,propan-2-ol,,,CCCC[N+]1(C)CCCC1.O=S(=O)([N-]S(=O)(=O)C(F)(F)F)C(F)(F)F,1-butyl-1-methylpyrrolidinium bis[(trifluoromethyl)sulfonyl]imide,ABdMNo,CC(C)O,propan-2-ol,AALcwx,CCCC[N+]1(C)CCCC1,O=S(=O)([N-]S(=O)(=O)C(F)(F)F)C(F)(F)F,2,0.1319,,,1579,False,CCCC[N+]1(C)CCCC1.O=S(=O)([N-]S(=O)(=O)C(F)(F)F)C(F)(F)F,No changes
kgdVt,303.15,101.0,1367.2,Gonzalez et al. (2013e),Liquid,0.8681,propan-2-ol,,,CCCC[N+]1(C)CCCC1.O=S(=O)([N-]S(=O)(=O)C(F)(F)F)C(F)(F)F,1-butyl-1-methylpyrrolidinium bis[(trifluoromethyl)sulfonyl]imide,ABdMNo,CC(C)O,propan-2-ol,AALcwx,CCCC[N+]1(C)CCCC1,O=S(=O)([N-]S(=O)(=O)C(F)(F)F)C(F)(F)F,2,0.1319,,,1580,False,CCCC[N+]1(C)CCCC1.O=S(=O)([N-]S(=O)(=O)C(F)(F)F)C(F)(F)F,No changes
kgdVt,308.15,101.0,1362.8,Gonzalez et al. (2013e),Liquid,0.8681,propan-2-ol,,,CCCC[N+]1(C)CCCC1.O=S(=O)([N-]S(=O)(=O)C(F)(F)F)C(F)(F)F,1-butyl-1-methylpyrrolidinium bis[(trifluoromethyl)sulfonyl]imide,ABdMNo,CC(C)O,propan-2-ol,AALcwx,CCCC[N+]1(C)CCCC1,O=S(=O)([N-]S(=O)(=O)C(F)(F)F)C(F)(F)F,2,0.1319,,,1581,False,CCCC[N+]1(C)CCCC1.O=S(=O)([N-]S(=O)(=O)C(F)(F)F)C(F)(F)F,No changes
kgdVt,298.15,101.0,1350.3,Gonzalez et al. (2013e),Liquid,0.7656000000000001,propan-2-ol,,,CCCC[N+]1(C)CCCC1.O=S(=O)([N-]S(=O)(=O)C(F)(F)F)C(F)(F)F,1-butyl-1-methylpyrrolidinium bis[(trifluoromethyl)sulfonyl]imide,ABdMNo,CC(C)O,propan-2-ol,AALcwx,CCCC[N+]1(C)CCCC1,O=S(=O)([N-]S(=O)(=O)C(F)(F)F)C(F)(F)F,2,0.2344,,,1582,False,CCCC[N+]1(C)CCCC1.O=S(=O)([N-]S(=O)(=O)C(F)(F)F)C(F)(F)F,No changes
kgdVt,303.15,101.0,1345.8,Gonzalez et al. (2013e),Liquid,0.7656000000000001,propan-2-ol,,,CCCC[N+]1(C)CCCC1.O=S(=O)([N-]S(=O)(=O)C(F)(F)F)C(F)(F)F,1-butyl-1-methylpyrrolidinium bis[(trifluoromethyl)sulfonyl]imide,ABdMNo,CC(C)O,propan-2-ol,AALcwx,CCCC[N+]1(C)CCCC1,O=S(=O)([N-]S(=O)(=O)C(F)(F)F)C(F)(F)F,2,0.2344,,,1583,False,CCCC[N+]1(C)CCCC1.O=S(=O)([N-]S(=O)(=O)C(F)(F)F)C(F)(F)F,No changes
kgdVt,308.15,101.0,1341.3,Gonzalez et al. (2013e),Liquid,0.7656000000000001,propan-2-ol,,,CCCC[N+]1(C)CCCC1.O=S(=O)([N-]S(=O)(=O)C(F)(F)F)C(F)(F)F,1-butyl-1-methylpyrrolidinium bis[(trifluoromethyl)sulfonyl]imide,ABdMNo,CC(C)O,propan-2-ol,AALcwx,CCCC[N+]1(C)CCCC1,O=S(=O)([N-]S(=O)(=O)C(F)(F)F)C(F)(F)F,2,0.2344,,,1584,False,CCCC[N+]1(C)CCCC1.O=S(=O)([N-]S(=O)(=O)C(F)(F)F)C(F)(F)F,No changes
kgdVt,298.15,101.0,1308.33,Gonzalez et al. (2013e),Liquid,0.6071,propan-2-ol,,,CCCC[N+]1(C)CCCC1.O=S(=O)([N-]S(=O)(=O)C(F)(F)F)C(F)(F)F,1-butyl-1-methylpyrrolidinium bis[(trifluoromethyl)sulfonyl]imide,ABdMNo,CC(C)O,propan-2-ol,AALcwx,CCCC[N+]1(C)CCCC1,O=S(=O)([N-]S(=O)(=O)C(F)(F)F)C(F)(F)F,2,0.3929,,,1585,False,CCCC[N+]1(C)CCCC1.O=S(=O)([N-]S(=O)(=O)C(F)(F)F)C(F)(F)F,No changes
kgdVt,303.15,101.0,1303.81,Gonzalez et al. (2013e),Liquid,0.6071,propan-2-ol,,,CCCC[N+]1(C)CCCC1.O=S(=O)([N-]S(=O)(=O)C(F)(F)F)C(F)(F)F,1-butyl-1-methylpyrrolidinium bis[(trifluoromethyl)sulfonyl]imide,ABdMNo,CC(C)O,propan-2-ol,AALcwx,CCCC[N+]1(C)CCCC1,O=S(=O)([N-]S(=O)(=O)C(F)(F)F)C(F)(F)F,2,0.3929,,,1586,False,CCCC[N+]1(C)CCCC1.O=S(=O)([N-]S(=O)(=O)C(F)(F)F)C(F)(F)F,No changes
kgdVt,308.15,101.0,1299.32,Gonzalez et al. (2013e),Liquid,0.6071,propan-2-ol,,,CCCC[N+]1(C)CCCC1.O=S(=O)([N-]S(=O)(=O)C(F)(F)F)C(F)(F)F,1-butyl-1-methylpyrrolidinium bis[(trifluoromethyl)sulfonyl]imide,ABdMNo,CC(C)O,propan-2-ol,AALcwx,CCCC[N+]1(C)CCCC1,O=S(=O)([N-]S(=O)(=O)C(F)(F)F)C(F)(F)F,2,0.3929,,,1587,False,CCCC[N+]1(C)CCCC1.O=S(=O)([N-]S(=O)(=O)C(F)(F)F)C(F)(F)F,No changes
kgdVt,298.15,101.0,1273.95,Gonzalez et al. (2013e),Liquid,0.5065,propan-2-ol,,,CCCC[N+]1(C)CCCC1.O=S(=O)([N-]S(=O)(=O)C(F)(F)F)C(F)(F)F,1-butyl-1-methylpyrrolidinium bis[(trifluoromethyl)sulfonyl]imide,ABdMNo,CC(C)O,propan-2-ol,AALcwx,CCCC[N+]1(C)CCCC1,O=S(=O)([N-]S(=O)(=O)C(F)(F)F)C(F)(F)F,2,0.4935,,,1588,False,CCCC[N+]1(C)CCCC1.O=S(=O)([N-]S(=O)(=O)C(F)(F)F)C(F)(F)F,No changes
kgdVt,303.15,101.0,1269.38,Gonzalez et al. (2013e),Liquid,0.5065,propan-2-ol,,,CCCC[N+]1(C)CCCC1.O=S(=O)([N-]S(=O)(=O)C(F)(F)F)C(F)(F)F,1-butyl-1-methylpyrrolidinium bis[(trifluoromethyl)sulfonyl]imide,ABdMNo,CC(C)O,propan-2-ol,AALcwx,CCCC[N+]1(C)CCCC1,O=S(=O)([N-]S(=O)(=O)C(F)(F)F)C(F)(F)F,2,0.4935,,,1589,False,CCCC[N+]1(C)CCCC1.O=S(=O)([N-]S(=O)(=O)C(F)(F)F)C(F)(F)F,No changes
kgdVt,308.15,101.0,1264.81,Gonzalez et al. (2013e),Liquid,0.5065,propan-2-ol,,,CCCC[N+]1(C)CCCC1.O=S(=O)([N-]S(=O)(=O)C(F)(F)F)C(F)(F)F,1-butyl-1-methylpyrrolidinium bis[(trifluoromethyl)sulfonyl]imide,ABdMNo,CC(C)O,propan-2-ol,AALcwx,CCCC[N+]1(C)CCCC1,O=S(=O)([N-]S(=O)(=O)C(F)(F)F)C(F)(F)F,2,0.4935,,,1590,False,CCCC[N+]1(C)CCCC1.O=S(=O)([N-]S(=O)(=O)C(F)(F)F)C(F)(F)F,No changes
kgdVt,298.15,101.0,1230.64,Gonzalez et al. (2013e),Liquid,0.4073,propan-2-ol,,,CCCC[N+]1(C)CCCC1.O=S(=O)([N-]S(=O)(=O)C(F)(F)F)C(F)(F)F,1-butyl-1-methylpyrrolidinium bis[(trifluoromethyl)sulfonyl]imide,ABdMNo,CC(C)O,propan-2-ol,AALcwx,CCCC[N+]1(C)CCCC1,O=S(=O)([N-]S(=O)(=O)C(F)(F)F)C(F)(F)F,2,0.5927,,,1591,False,CCCC[N+]1(C)CCCC1.O=S(=O)([N-]S(=O)(=O)C(F)(F)F)C(F)(F)F,No changes
kgdVt,303.15,101.0,1226.03,Gonzalez et al. (2013e),Liquid,0.4073,propan-2-ol,,,CCCC[N+]1(C)CCCC1.O=S(=O)([N-]S(=O)(=O)C(F)(F)F)C(F)(F)F,1-butyl-1-methylpyrrolidinium bis[(trifluoromethyl)sulfonyl]imide,ABdMNo,CC(C)O,propan-2-ol,AALcwx,CCCC[N+]1(C)CCCC1,O=S(=O)([N-]S(=O)(=O)C(F)(F)F)C(F)(F)F,2,0.5927,,,1592,False,CCCC[N+]1(C)CCCC1.O=S(=O)([N-]S(=O)(=O)C(F)(F)F)C(F)(F)F,No changes
kgdVt,308.15,101.0,1221.41,Gonzalez et al. (2013e),Liquid,0.4073,propan-2-ol,,,CCCC[N+]1(C)CCCC1.O=S(=O)([N-]S(=O)(=O)C(F)(F)F)C(F)(F)F,1-butyl-1-methylpyrrolidinium bis[(trifluoromethyl)sulfonyl]imide,ABdMNo,CC(C)O,propan-2-ol,AALcwx,CCCC[N+]1(C)CCCC1,O=S(=O)([N-]S(=O)(=O)C(F)(F)F)C(F)(F)F,2,0.5927,,,1593,False,CCCC[N+]1(C)CCCC1.O=S(=O)([N-]S(=O)(=O)C(F)(F)F)C(F)(F)F,No changes
kgdVt,298.15,101.0,1155.54,Gonzalez et al. (2013e),Liquid,0.282,propan-2-ol,,,CCCC[N+]1(C)CCCC1.O=S(=O)([N-]S(=O)(=O)C(F)(F)F)C(F)(F)F,1-butyl-1-methylpyrrolidinium bis[(trifluoromethyl)sulfonyl]imide,ABdMNo,CC(C)O,propan-2-ol,AALcwx,CCCC[N+]1(C)CCCC1,O=S(=O)([N-]S(=O)(=O)C(F)(F)F)C(F)(F)F,2,0.718,,,1594,False,CCCC[N+]1(C)CCCC1.O=S(=O)([N-]S(=O)(=O)C(F)(F)F)C(F)(F)F,No changes
kgdVt,303.15,101.0,1150.91,Gonzalez et al. (2013e),Liquid,0.282,propan-2-ol,,,CCCC[N+]1(C)CCCC1.O=S(=O)([N-]S(=O)(=O)C(F)(F)F)C(F)(F)F,1-butyl-1-methylpyrrolidinium bis[(trifluoromethyl)sulfonyl]imide,ABdMNo,CC(C)O,propan-2-ol,AALcwx,CCCC[N+]1(C)CCCC1,O=S(=O)([N-]S(=O)(=O)C(F)(F)F)C(F)(F)F,2,0.718,,,1595,False,CCCC[N+]1(C)CCCC1.O=S(=O)([N-]S(=O)(=O)C(F)(F)F)C(F)(F)F,No changes
kgdVt,308.15,101.0,1146.27,Gonzalez et al. (2013e),Liquid,0.282,propan-2-ol,,,CCCC[N+]1(C)CCCC1.O=S(=O)([N-]S(=O)(=O)C(F)(F)F)C(F)(F)F,1-butyl-1-methylpyrrolidinium bis[(trifluoromethyl)sulfonyl]imide,ABdMNo,CC(C)O,propan-2-ol,AALcwx,CCCC[N+]1(C)CCCC1,O=S(=O)([N-]S(=O)(=O)C(F)(F)F)C(F)(F)F,2,0.718,,,1596,False,CCCC[N+]1(C)CCCC1.O=S(=O)([N-]S(=O)(=O)C(F)(F)F)C(F)(F)F,No changes
kgdVt,298.15,101.0,1086.25,Gonzalez et al. (2013e),Liquid,0.1985,propan-2-ol,,,CCCC[N+]1(C)CCCC1.O=S(=O)([N-]S(=O)(=O)C(F)(F)F)C(F)(F)F,1-butyl-1-methylpyrrolidinium bis[(trifluoromethyl)sulfonyl]imide,ABdMNo,CC(C)O,propan-2-ol,AALcwx,CCCC[N+]1(C)CCCC1,O=S(=O)([N-]S(=O)(=O)C(F)(F)F)C(F)(F)F,2,0.8015,,,1597,False,CCCC[N+]1(C)CCCC1.O=S(=O)([N-]S(=O)(=O)C(F)(F)F)C(F)(F)F,No changes
kgdVt,303.15,101.0,1081.65,Gonzalez et al. (2013e),Liquid,0.1985,propan-2-ol,,,CCCC[N+]1(C)CCCC1.O=S(=O)([N-]S(=O)(=O)C(F)(F)F)C(F)(F)F,1-butyl-1-methylpyrrolidinium bis[(trifluoromethyl)sulfonyl]imide,ABdMNo,CC(C)O,propan-2-ol,AALcwx,CCCC[N+]1(C)CCCC1,O=S(=O)([N-]S(=O)(=O)C(F)(F)F)C(F)(F)F,2,0.8015,,,1598,False,CCCC[N+]1(C)CCCC1.O=S(=O)([N-]S(=O)(=O)C(F)(F)F)C(F)(F)F,No changes
kgdVt,308.15,101.0,1077.01,Gonzalez et al. (2013e),Liquid,0.1985,propan-2-ol,,,CCCC[N+]1(C)CCCC1.O=S(=O)([N-]S(=O)(=O)C(F)(F)F)C(F)(F)F,1-butyl-1-methylpyrrolidinium bis[(trifluoromethyl)sulfonyl]imide,ABdMNo,CC(C)O,propan-2-ol,AALcwx,CCCC[N+]1(C)CCCC1,O=S(=O)([N-]S(=O)(=O)C(F)(F)F)C(F)(F)F,2,0.8015,,,1599,False,CCCC[N+]1(C)CCCC1.O=S(=O)([N-]S(=O)(=O)C(F)(F)F)C(F)(F)F,No changes
kgdVt,298.15,101.0,967.03,Gonzalez et al. (2013e),Liquid,0.0981999999999999,propan-2-ol,,,CCCC[N+]1(C)CCCC1.O=S(=O)([N-]S(=O)(=O)C(F)(F)F)C(F)(F)F,1-butyl-1-methylpyrrolidinium bis[(trifluoromethyl)sulfonyl]imide,ABdMNo,CC(C)O,propan-2-ol,AALcwx,CCCC[N+]1(C)CCCC1,O=S(=O)([N-]S(=O)(=O)C(F)(F)F)C(F)(F)F,2,0.9018,,,1600,False,CCCC[N+]1(C)CCCC1.O=S(=O)([N-]S(=O)(=O)C(F)(F)F)C(F)(F)F,No changes
kgdVt,303.15,101.0,962.54,Gonzalez et al. (2013e),Liquid,0.0981999999999999,propan-2-ol,,,CCCC[N+]1(C)CCCC1.O=S(=O)([N-]S(=O)(=O)C(F)(F)F)C(F)(F)F,1-butyl-1-methylpyrrolidinium bis[(trifluoromethyl)sulfonyl]imide,ABdMNo,CC(C)O,propan-2-ol,AALcwx,CCCC[N+]1(C)CCCC1,O=S(=O)([N-]S(=O)(=O)C(F)(F)F)C(F)(F)F,2,0.9018,,,1601,False,CCCC[N+]1(C)CCCC1.O=S(=O)([N-]S(=O)(=O)C(F)(F)F)C(F)(F)F,No changes
kgdVt,308.15,101.0,957.99,Gonzalez et al. (2013e),Liquid,0.0981999999999999,propan-2-ol,,,CCCC[N+]1(C)CCCC1.O=S(=O)([N-]S(=O)(=O)C(F)(F)F)C(F)(F)F,1-butyl-1-methylpyrrolidinium bis[(trifluoromethyl)sulfonyl]imide,ABdMNo,CC(C)O,propan-2-ol,AALcwx,CCCC[N+]1(C)CCCC1,O=S(=O)([N-]S(=O)(=O)C(F)(F)F)C(F)(F)F,2,0.9018,,,1602,False,CCCC[N+]1(C)CCCC1.O=S(=O)([N-]S(=O)(=O)C(F)(F)F)C(F)(F)F,No changes
kgdVt,298.15,101.0,889.7,Gonzalez et al. (2013e),Liquid,0.0508999999999999,propan-2-ol,,,CCCC[N+]1(C)CCCC1.O=S(=O)([N-]S(=O)(=O)C(F)(F)F)C(F)(F)F,1-butyl-1-methylpyrrolidinium bis[(trifluoromethyl)sulfonyl]imide,ABdMNo,CC(C)O,propan-2-ol,AALcwx,CCCC[N+]1(C)CCCC1,O=S(=O)([N-]S(=O)(=O)C(F)(F)F)C(F)(F)F,2,0.9491,,,1603,False,CCCC[N+]1(C)CCCC1.O=S(=O)([N-]S(=O)(=O)C(F)(F)F)C(F)(F)F,No changes
kgdVt,303.15,101.0,885.31,Gonzalez et al. (2013e),Liquid,0.0508999999999999,propan-2-ol,,,CCCC[N+]1(C)CCCC1.O=S(=O)([N-]S(=O)(=O)C(F)(F)F)C(F)(F)F,1-butyl-1-methylpyrrolidinium bis[(trifluoromethyl)sulfonyl]imide,ABdMNo,CC(C)O,propan-2-ol,AALcwx,CCCC[N+]1(C)CCCC1,O=S(=O)([N-]S(=O)(=O)C(F)(F)F)C(F)(F)F,2,0.9491,,,1604,False,CCCC[N+]1(C)CCCC1.O=S(=O)([N-]S(=O)(=O)C(F)(F)F)C(F)(F)F,No changes
kgdVt,308.15,101.0,880.85,Gonzalez et al. (2013e),Liquid,0.0508999999999999,propan-2-ol,,,CCCC[N+]1(C)CCCC1.O=S(=O)([N-]S(=O)(=O)C(F)(F)F)C(F)(F)F,1-butyl-1-methylpyrrolidinium bis[(trifluoromethyl)sulfonyl]imide,ABdMNo,CC(C)O,propan-2-ol,AALcwx,CCCC[N+]1(C)CCCC1,O=S(=O)([N-]S(=O)(=O)C(F)(F)F)C(F)(F)F,2,0.9491,,,1605,False,CCCC[N+]1(C)CCCC1.O=S(=O)([N-]S(=O)(=O)C(F)(F)F)C(F)(F)F,No changes
kgdVt,298.15,101.0,781.06,Gonzalez et al. (2013e),Liquid,0.0,propan-2-ol,,,CCCC[N+]1(C)CCCC1.O=S(=O)([N-]S(=O)(=O)C(F)(F)F)C(F)(F)F,1-butyl-1-methylpyrrolidinium bis[(trifluoromethyl)sulfonyl]imide,ABdMNo,CC(C)O,propan-2-ol,AALcwx,CCCC[N+]1(C)CCCC1,O=S(=O)([N-]S(=O)(=O)C(F)(F)F)C(F)(F)F,2,1.0,,,1606,False,CCCC[N+]1(C)CCCC1.O=S(=O)([N-]S(=O)(=O)C(F)(F)F)C(F)(F)F,No changes
kgdVt,303.15,101.0,776.8,Gonzalez et al. (2013e),Liquid,0.0,propan-2-ol,,,CCCC[N+]1(C)CCCC1.O=S(=O)([N-]S(=O)(=O)C(F)(F)F)C(F)(F)F,1-butyl-1-methylpyrrolidinium bis[(trifluoromethyl)sulfonyl]imide,ABdMNo,CC(C)O,propan-2-ol,AALcwx,CCCC[N+]1(C)CCCC1,O=S(=O)([N-]S(=O)(=O)C(F)(F)F)C(F)(F)F,2,1.0,,,1607,False,CCCC[N+]1(C)CCCC1.O=S(=O)([N-]S(=O)(=O)C(F)(F)F)C(F)(F)F,No changes
kgdVt,308.15,101.0,772.46,Gonzalez et al. (2013e),Liquid,0.0,propan-2-ol,,,CCCC[N+]1(C)CCCC1.O=S(=O)([N-]S(=O)(=O)C(F)(F)F)C(F)(F)F,1-butyl-1-methylpyrrolidinium bis[(trifluoromethyl)sulfonyl]imide,ABdMNo,CC(C)O,propan-2-ol,AALcwx,CCCC[N+]1(C)CCCC1,O=S(=O)([N-]S(=O)(=O)C(F)(F)F)C(F)(F)F,2,1.0,,,1608,False,CCCC[N+]1(C)CCCC1.O=S(=O)([N-]S(=O)(=O)C(F)(F)F)C(F)(F)F,No changes
kwBiO,298.15,101.0,1414.7,Gonzalez et al. (2013e),Liquid,1.0,propan-2-ol,,,CCCC[n+]1cccc(C)c1.O=S(=O)([N-]S(=O)(=O)C(F)(F)F)C(F)(F)F,1-butyl-3-methylpyridinium bis[(trifluoromethyl)sulfonyl]amide,ABenCa,CC(C)O,propan-2-ol,AALcwx,CCCC[n+]1cccc(C)c1,O=S(=O)([N-]S(=O)(=O)C(F)(F)F)C(F)(F)F,2,0.0,,,1609,False,CCCC[n+]1cccc(C)c1.O=S(=O)([N-]S(=O)(=O)C(F)(F)F)C(F)(F)F,No changes
kwBiO,303.15,101.0,1410.1,Gonzalez et al. (2013e),Liquid,1.0,propan-2-ol,,,CCCC[n+]1cccc(C)c1.O=S(=O)([N-]S(=O)(=O)C(F)(F)F)C(F)(F)F,1-butyl-3-methylpyridinium bis[(trifluoromethyl)sulfonyl]amide,ABenCa,CC(C)O,propan-2-ol,AALcwx,CCCC[n+]1cccc(C)c1,O=S(=O)([N-]S(=O)(=O)C(F)(F)F)C(F)(F)F,2,0.0,,,1610,False,CCCC[n+]1cccc(C)c1.O=S(=O)([N-]S(=O)(=O)C(F)(F)F)C(F)(F)F,No changes
kwBiO,308.15,101.0,1405.5,Gonzalez et al. (2013e),Liquid,1.0,propan-2-ol,,,CCCC[n+]1cccc(C)c1.O=S(=O)([N-]S(=O)(=O)C(F)(F)F)C(F)(F)F,1-butyl-3-methylpyridinium bis[(trifluoromethyl)sulfonyl]amide,ABenCa,CC(C)O,propan-2-ol,AALcwx,CCCC[n+]1cccc(C)c1,O=S(=O)([N-]S(=O)(=O)C(F)(F)F)C(F)(F)F,2,0.0,,,1611,False,CCCC[n+]1cccc(C)c1.O=S(=O)([N-]S(=O)(=O)C(F)(F)F)C(F)(F)F,No changes
kwBiO,298.15,101.0,1405.5,Gonzalez et al. (2013e),Liquid,0.9466,propan-2-ol,,,CCCC[n+]1cccc(C)c1.O=S(=O)([N-]S(=O)(=O)C(F)(F)F)C(F)(F)F,1-butyl-3-methylpyridinium bis[(trifluoromethyl)sulfonyl]amide,ABenCa,CC(C)O,propan-2-ol,AALcwx,CCCC[n+]1cccc(C)c1,O=S(=O)([N-]S(=O)(=O)C(F)(F)F)C(F)(F)F,2,0.0534,,,1612,False,CCCC[n+]1cccc(C)c1.O=S(=O)([N-]S(=O)(=O)C(F)(F)F)C(F)(F)F,No changes
kwBiO,303.15,101.0,1400.9,Gonzalez et al. (2013e),Liquid,0.9466,propan-2-ol,,,CCCC[n+]1cccc(C)c1.O=S(=O)([N-]S(=O)(=O)C(F)(F)F)C(F)(F)F,1-butyl-3-methylpyridinium bis[(trifluoromethyl)sulfonyl]amide,ABenCa,CC(C)O,propan-2-ol,AALcwx,CCCC[n+]1cccc(C)c1,O=S(=O)([N-]S(=O)(=O)C(F)(F)F)C(F)(F)F,2,0.0534,,,1613,False,CCCC[n+]1cccc(C)c1.O=S(=O)([N-]S(=O)(=O)C(F)(F)F)C(F)(F)F,No changes