setid,Temperature (K),Pressure (kPa),Density (kg/m3),reference,phases,Mole fraction,Mole fraction of compound name,Weight fraction,Weight fraction of compound name,IL_SMILES,IL_name,IL_ID,Solvent_SMILES,Solvent_name,Solvent_ID,IL_cation_SMILES,IL_anion_SMILES,IL_component_number,Mole fraction of solvent,IL_MW,Solvent_MW,Record_ID,Contains_Metal,Standardized_IL_SMILES,Changes
YqDhU,318.15,100.0,1254.2,Fang et al. (2019b),Liquid,0.7,1-ethyl-3-(2-methoxyethyl)imidazolium trifluoromethanesulfonate,,,CC[n+]1ccn(CCOC)c1.O=S(=O)([O-])C(F)(F)F,1-ethyl-3-(2-methoxyethyl)imidazolium trifluoromethanesulfonate,ABGawV,CC(C)O,propan-2-ol,AALcwx,CC[n+]1ccn(CCOC)c1,O=S(=O)([O-])C(F)(F)F,2,,,,279,False,CC[n+]1ccn(CCOC)c1.O=S(=O)([O-])C(F)(F)F,No changes
YqDhU,318.15,100.0,1280.8,Fang et al. (2019b),Liquid,0.7998,1-ethyl-3-(2-methoxyethyl)imidazolium trifluoromethanesulfonate,,,CC[n+]1ccn(CCOC)c1.O=S(=O)([O-])C(F)(F)F,1-ethyl-3-(2-methoxyethyl)imidazolium trifluoromethanesulfonate,ABGawV,CC(C)O,propan-2-ol,AALcwx,CC[n+]1ccn(CCOC)c1,O=S(=O)([O-])C(F)(F)F,2,,,,280,False,CC[n+]1ccn(CCOC)c1.O=S(=O)([O-])C(F)(F)F,No changes
YqDhU,318.15,100.0,1304.0,Fang et al. (2019b),Liquid,0.9003,1-ethyl-3-(2-methoxyethyl)imidazolium trifluoromethanesulfonate,,,CC[n+]1ccn(CCOC)c1.O=S(=O)([O-])C(F)(F)F,1-ethyl-3-(2-methoxyethyl)imidazolium trifluoromethanesulfonate,ABGawV,CC(C)O,propan-2-ol,AALcwx,CC[n+]1ccn(CCOC)c1,O=S(=O)([O-])C(F)(F)F,2,,,,281,False,CC[n+]1ccn(CCOC)c1.O=S(=O)([O-])C(F)(F)F,No changes
YqDhU,318.15,100.0,1323.6,Fang et al. (2019b),Liquid,1.0,1-ethyl-3-(2-methoxyethyl)imidazolium trifluoromethanesulfonate,,,CC[n+]1ccn(CCOC)c1.O=S(=O)([O-])C(F)(F)F,1-ethyl-3-(2-methoxyethyl)imidazolium trifluoromethanesulfonate,ABGawV,CC(C)O,propan-2-ol,AALcwx,CC[n+]1ccn(CCOC)c1,O=S(=O)([O-])C(F)(F)F,2,,,,282,False,CC[n+]1ccn(CCOC)c1.O=S(=O)([O-])C(F)(F)F,No changes
HGmVA,298.15,100.0,852.2,Deenadayalu et al. (2009),Liquid,0.0665,1-ethyl-3-methylimidazolium ethyl sulfate,,,CC[n+]1ccn(C)c1.CCOS(=O)(=O)[O-],1-ethyl-3-methylimidazolium ethyl sulfate,AAtWDT,CC(C)O,propan-2-ol,AALcwx,CC[n+]1ccn(C)c1,CCOS(=O)(=O)[O-],2,,,,283,False,CC[n+]1ccn(C)c1.CCOS(=O)(=O)[O-],No changes
HGmVA,303.15,100.0,848.3,Deenadayalu et al. (2009),Liquid,0.0665,1-ethyl-3-methylimidazolium ethyl sulfate,,,CC[n+]1ccn(C)c1.CCOS(=O)(=O)[O-],1-ethyl-3-methylimidazolium ethyl sulfate,AAtWDT,CC(C)O,propan-2-ol,AALcwx,CC[n+]1ccn(C)c1,CCOS(=O)(=O)[O-],2,,,,284,False,CC[n+]1ccn(C)c1.CCOS(=O)(=O)[O-],No changes
HGmVA,313.15,100.0,839.6,Deenadayalu et al. (2009),Liquid,0.0665,1-ethyl-3-methylimidazolium ethyl sulfate,,,CC[n+]1ccn(C)c1.CCOS(=O)(=O)[O-],1-ethyl-3-methylimidazolium ethyl sulfate,AAtWDT,CC(C)O,propan-2-ol,AALcwx,CC[n+]1ccn(C)c1,CCOS(=O)(=O)[O-],2,,,,285,False,CC[n+]1ccn(C)c1.CCOS(=O)(=O)[O-],No changes
HGmVA,298.15,100.0,892.6,Deenadayalu et al. (2009),Liquid,0.1114,1-ethyl-3-methylimidazolium ethyl sulfate,,,CC[n+]1ccn(C)c1.CCOS(=O)(=O)[O-],1-ethyl-3-methylimidazolium ethyl sulfate,AAtWDT,CC(C)O,propan-2-ol,AALcwx,CC[n+]1ccn(C)c1,CCOS(=O)(=O)[O-],2,,,,286,False,CC[n+]1ccn(C)c1.CCOS(=O)(=O)[O-],No changes
HGmVA,303.15,100.0,889.0,Deenadayalu et al. (2009),Liquid,0.1114,1-ethyl-3-methylimidazolium ethyl sulfate,,,CC[n+]1ccn(C)c1.CCOS(=O)(=O)[O-],1-ethyl-3-methylimidazolium ethyl sulfate,AAtWDT,CC(C)O,propan-2-ol,AALcwx,CC[n+]1ccn(C)c1,CCOS(=O)(=O)[O-],2,,,,287,False,CC[n+]1ccn(C)c1.CCOS(=O)(=O)[O-],No changes
HGmVA,313.15,100.0,881.0,Deenadayalu et al. (2009),Liquid,0.1114,1-ethyl-3-methylimidazolium ethyl sulfate,,,CC[n+]1ccn(C)c1.CCOS(=O)(=O)[O-],1-ethyl-3-methylimidazolium ethyl sulfate,AAtWDT,CC(C)O,propan-2-ol,AALcwx,CC[n+]1ccn(C)c1,CCOS(=O)(=O)[O-],2,,,,288,False,CC[n+]1ccn(C)c1.CCOS(=O)(=O)[O-],No changes
HGmVA,298.15,100.0,995.4,Deenadayalu et al. (2009),Liquid,0.2553,1-ethyl-3-methylimidazolium ethyl sulfate,,,CC[n+]1ccn(C)c1.CCOS(=O)(=O)[O-],1-ethyl-3-methylimidazolium ethyl sulfate,AAtWDT,CC(C)O,propan-2-ol,AALcwx,CC[n+]1ccn(C)c1,CCOS(=O)(=O)[O-],2,,,,289,False,CC[n+]1ccn(C)c1.CCOS(=O)(=O)[O-],No changes
HGmVA,303.15,100.0,992.4,Deenadayalu et al. (2009),Liquid,0.2553,1-ethyl-3-methylimidazolium ethyl sulfate,,,CC[n+]1ccn(C)c1.CCOS(=O)(=O)[O-],1-ethyl-3-methylimidazolium ethyl sulfate,AAtWDT,CC(C)O,propan-2-ol,AALcwx,CC[n+]1ccn(C)c1,CCOS(=O)(=O)[O-],2,,,,290,False,CC[n+]1ccn(C)c1.CCOS(=O)(=O)[O-],No changes
HGmVA,313.15,100.0,985.1,Deenadayalu et al. (2009),Liquid,0.2553,1-ethyl-3-methylimidazolium ethyl sulfate,,,CC[n+]1ccn(C)c1.CCOS(=O)(=O)[O-],1-ethyl-3-methylimidazolium ethyl sulfate,AAtWDT,CC(C)O,propan-2-ol,AALcwx,CC[n+]1ccn(C)c1,CCOS(=O)(=O)[O-],2,,,,291,False,CC[n+]1ccn(C)c1.CCOS(=O)(=O)[O-],No changes
HGmVA,298.15,100.0,1040.3,Deenadayalu et al. (2009),Liquid,0.3374,1-ethyl-3-methylimidazolium ethyl sulfate,,,CC[n+]1ccn(C)c1.CCOS(=O)(=O)[O-],1-ethyl-3-methylimidazolium ethyl sulfate,AAtWDT,CC(C)O,propan-2-ol,AALcwx,CC[n+]1ccn(C)c1,CCOS(=O)(=O)[O-],2,,,,292,False,CC[n+]1ccn(C)c1.CCOS(=O)(=O)[O-],No changes
HGmVA,303.15,100.0,1037.8,Deenadayalu et al. (2009),Liquid,0.3374,1-ethyl-3-methylimidazolium ethyl sulfate,,,CC[n+]1ccn(C)c1.CCOS(=O)(=O)[O-],1-ethyl-3-methylimidazolium ethyl sulfate,AAtWDT,CC(C)O,propan-2-ol,AALcwx,CC[n+]1ccn(C)c1,CCOS(=O)(=O)[O-],2,,,,293,False,CC[n+]1ccn(C)c1.CCOS(=O)(=O)[O-],No changes
HGmVA,313.15,100.0,1030.6,Deenadayalu et al. (2009),Liquid,0.3374,1-ethyl-3-methylimidazolium ethyl sulfate,,,CC[n+]1ccn(C)c1.CCOS(=O)(=O)[O-],1-ethyl-3-methylimidazolium ethyl sulfate,AAtWDT,CC(C)O,propan-2-ol,AALcwx,CC[n+]1ccn(C)c1,CCOS(=O)(=O)[O-],2,,,,294,False,CC[n+]1ccn(C)c1.CCOS(=O)(=O)[O-],No changes
HGmVA,298.15,100.0,1088.9,Deenadayalu et al. (2009),Liquid,0.4452,1-ethyl-3-methylimidazolium ethyl sulfate,,,CC[n+]1ccn(C)c1.CCOS(=O)(=O)[O-],1-ethyl-3-methylimidazolium ethyl sulfate,AAtWDT,CC(C)O,propan-2-ol,AALcwx,CC[n+]1ccn(C)c1,CCOS(=O)(=O)[O-],2,,,,295,False,CC[n+]1ccn(C)c1.CCOS(=O)(=O)[O-],No changes
HGmVA,303.15,100.0,1086.4,Deenadayalu et al. (2009),Liquid,0.4452,1-ethyl-3-methylimidazolium ethyl sulfate,,,CC[n+]1ccn(C)c1.CCOS(=O)(=O)[O-],1-ethyl-3-methylimidazolium ethyl sulfate,AAtWDT,CC(C)O,propan-2-ol,AALcwx,CC[n+]1ccn(C)c1,CCOS(=O)(=O)[O-],2,,,,296,False,CC[n+]1ccn(C)c1.CCOS(=O)(=O)[O-],No changes
HGmVA,313.15,100.0,1079.4,Deenadayalu et al. (2009),Liquid,0.4452,1-ethyl-3-methylimidazolium ethyl sulfate,,,CC[n+]1ccn(C)c1.CCOS(=O)(=O)[O-],1-ethyl-3-methylimidazolium ethyl sulfate,AAtWDT,CC(C)O,propan-2-ol,AALcwx,CC[n+]1ccn(C)c1,CCOS(=O)(=O)[O-],2,,,,297,False,CC[n+]1ccn(C)c1.CCOS(=O)(=O)[O-],No changes
HGmVA,298.15,100.0,1117.2,Deenadayalu et al. (2009),Liquid,0.5203,1-ethyl-3-methylimidazolium ethyl sulfate,,,CC[n+]1ccn(C)c1.CCOS(=O)(=O)[O-],1-ethyl-3-methylimidazolium ethyl sulfate,AAtWDT,CC(C)O,propan-2-ol,AALcwx,CC[n+]1ccn(C)c1,CCOS(=O)(=O)[O-],2,,,,298,False,CC[n+]1ccn(C)c1.CCOS(=O)(=O)[O-],No changes
HGmVA,303.15,100.0,1114.6,Deenadayalu et al. (2009),Liquid,0.5203,1-ethyl-3-methylimidazolium ethyl sulfate,,,CC[n+]1ccn(C)c1.CCOS(=O)(=O)[O-],1-ethyl-3-methylimidazolium ethyl sulfate,AAtWDT,CC(C)O,propan-2-ol,AALcwx,CC[n+]1ccn(C)c1,CCOS(=O)(=O)[O-],2,,,,299,False,CC[n+]1ccn(C)c1.CCOS(=O)(=O)[O-],No changes
HGmVA,313.15,100.0,1107.8,Deenadayalu et al. (2009),Liquid,0.5203,1-ethyl-3-methylimidazolium ethyl sulfate,,,CC[n+]1ccn(C)c1.CCOS(=O)(=O)[O-],1-ethyl-3-methylimidazolium ethyl sulfate,AAtWDT,CC(C)O,propan-2-ol,AALcwx,CC[n+]1ccn(C)c1,CCOS(=O)(=O)[O-],2,,,,300,False,CC[n+]1ccn(C)c1.CCOS(=O)(=O)[O-],No changes
HGmVA,298.15,100.0,1137.8,Deenadayalu et al. (2009),Liquid,0.5882,1-ethyl-3-methylimidazolium ethyl sulfate,,,CC[n+]1ccn(C)c1.CCOS(=O)(=O)[O-],1-ethyl-3-methylimidazolium ethyl sulfate,AAtWDT,CC(C)O,propan-2-ol,AALcwx,CC[n+]1ccn(C)c1,CCOS(=O)(=O)[O-],2,,,,301,False,CC[n+]1ccn(C)c1.CCOS(=O)(=O)[O-],No changes
HGmVA,303.15,100.0,1137.1,Deenadayalu et al. (2009),Liquid,0.5882,1-ethyl-3-methylimidazolium ethyl sulfate,,,CC[n+]1ccn(C)c1.CCOS(=O)(=O)[O-],1-ethyl-3-methylimidazolium ethyl sulfate,AAtWDT,CC(C)O,propan-2-ol,AALcwx,CC[n+]1ccn(C)c1,CCOS(=O)(=O)[O-],2,,,,302,False,CC[n+]1ccn(C)c1.CCOS(=O)(=O)[O-],No changes
HGmVA,313.15,100.0,1130.2,Deenadayalu et al. (2009),Liquid,0.5882,1-ethyl-3-methylimidazolium ethyl sulfate,,,CC[n+]1ccn(C)c1.CCOS(=O)(=O)[O-],1-ethyl-3-methylimidazolium ethyl sulfate,AAtWDT,CC(C)O,propan-2-ol,AALcwx,CC[n+]1ccn(C)c1,CCOS(=O)(=O)[O-],2,,,,303,False,CC[n+]1ccn(C)c1.CCOS(=O)(=O)[O-],No changes
HGmVA,298.15,100.0,1174.4,Deenadayalu et al. (2009),Liquid,0.7084,1-ethyl-3-methylimidazolium ethyl sulfate,,,CC[n+]1ccn(C)c1.CCOS(=O)(=O)[O-],1-ethyl-3-methylimidazolium ethyl sulfate,AAtWDT,CC(C)O,propan-2-ol,AALcwx,CC[n+]1ccn(C)c1,CCOS(=O)(=O)[O-],2,,,,304,False,CC[n+]1ccn(C)c1.CCOS(=O)(=O)[O-],No changes
HGmVA,303.15,100.0,1171.4,Deenadayalu et al. (2009),Liquid,0.7084,1-ethyl-3-methylimidazolium ethyl sulfate,,,CC[n+]1ccn(C)c1.CCOS(=O)(=O)[O-],1-ethyl-3-methylimidazolium ethyl sulfate,AAtWDT,CC(C)O,propan-2-ol,AALcwx,CC[n+]1ccn(C)c1,CCOS(=O)(=O)[O-],2,,,,305,False,CC[n+]1ccn(C)c1.CCOS(=O)(=O)[O-],No changes
HGmVA,313.15,100.0,1164.2,Deenadayalu et al. (2009),Liquid,0.7084,1-ethyl-3-methylimidazolium ethyl sulfate,,,CC[n+]1ccn(C)c1.CCOS(=O)(=O)[O-],1-ethyl-3-methylimidazolium ethyl sulfate,AAtWDT,CC(C)O,propan-2-ol,AALcwx,CC[n+]1ccn(C)c1,CCOS(=O)(=O)[O-],2,,,,306,False,CC[n+]1ccn(C)c1.CCOS(=O)(=O)[O-],No changes
HGmVA,298.15,100.0,1214.7,Deenadayalu et al. (2009),Liquid,0.8825,1-ethyl-3-methylimidazolium ethyl sulfate,,,CC[n+]1ccn(C)c1.CCOS(=O)(=O)[O-],1-ethyl-3-methylimidazolium ethyl sulfate,AAtWDT,CC(C)O,propan-2-ol,AALcwx,CC[n+]1ccn(C)c1,CCOS(=O)(=O)[O-],2,,,,307,False,CC[n+]1ccn(C)c1.CCOS(=O)(=O)[O-],No changes
HGmVA,303.15,100.0,1211.5,Deenadayalu et al. (2009),Liquid,0.8825,1-ethyl-3-methylimidazolium ethyl sulfate,,,CC[n+]1ccn(C)c1.CCOS(=O)(=O)[O-],1-ethyl-3-methylimidazolium ethyl sulfate,AAtWDT,CC(C)O,propan-2-ol,AALcwx,CC[n+]1ccn(C)c1,CCOS(=O)(=O)[O-],2,,,,308,False,CC[n+]1ccn(C)c1.CCOS(=O)(=O)[O-],No changes
HGmVA,313.15,100.0,1205.1,Deenadayalu et al. (2009),Liquid,0.8825,1-ethyl-3-methylimidazolium ethyl sulfate,,,CC[n+]1ccn(C)c1.CCOS(=O)(=O)[O-],1-ethyl-3-methylimidazolium ethyl sulfate,AAtWDT,CC(C)O,propan-2-ol,AALcwx,CC[n+]1ccn(C)c1,CCOS(=O)(=O)[O-],2,,,,309,False,CC[n+]1ccn(C)c1.CCOS(=O)(=O)[O-],No changes
HGmVA,298.15,100.0,1228.9,Deenadayalu et al. (2009),Liquid,0.9545,1-ethyl-3-methylimidazolium ethyl sulfate,,,CC[n+]1ccn(C)c1.CCOS(=O)(=O)[O-],1-ethyl-3-methylimidazolium ethyl sulfate,AAtWDT,CC(C)O,propan-2-ol,AALcwx,CC[n+]1ccn(C)c1,CCOS(=O)(=O)[O-],2,,,,310,False,CC[n+]1ccn(C)c1.CCOS(=O)(=O)[O-],No changes
HGmVA,303.15,100.0,1225.8,Deenadayalu et al. (2009),Liquid,0.9545,1-ethyl-3-methylimidazolium ethyl sulfate,,,CC[n+]1ccn(C)c1.CCOS(=O)(=O)[O-],1-ethyl-3-methylimidazolium ethyl sulfate,AAtWDT,CC(C)O,propan-2-ol,AALcwx,CC[n+]1ccn(C)c1,CCOS(=O)(=O)[O-],2,,,,311,False,CC[n+]1ccn(C)c1.CCOS(=O)(=O)[O-],No changes
HGmVA,313.15,100.0,1219.3,Deenadayalu et al. (2009),Liquid,0.9545,1-ethyl-3-methylimidazolium ethyl sulfate,,,CC[n+]1ccn(C)c1.CCOS(=O)(=O)[O-],1-ethyl-3-methylimidazolium ethyl sulfate,AAtWDT,CC(C)O,propan-2-ol,AALcwx,CC[n+]1ccn(C)c1,CCOS(=O)(=O)[O-],2,,,,312,False,CC[n+]1ccn(C)c1.CCOS(=O)(=O)[O-],No changes
YyDrb,293.15,101.0,785.0,Pereiro and Rodriguez (2008e),Liquid,0.0,1-octyl-3-methylimidazolium hexafluorophosphate,,,CCCCCCCC[n+]1ccn(C)c1.F[P-](F)(F)(F)(F)F,1-octyl-3-methylimidazolium hexafluorophosphate,ABNWoR,CC(C)O,propan-2-ol,AALcwx,CCCCCCCC[n+]1ccn(C)c1,F[P-](F)(F)(F)(F)F,2,,,,313,False,CCCCCCCC[n+]1ccn(C)c1.F[P-](F)(F)(F)(F)F,No changes
YyDrb,293.15,101.0,785.7,Pereiro and Rodriguez (2008e),Liquid,0.0004,1-octyl-3-methylimidazolium hexafluorophosphate,,,CCCCCCCC[n+]1ccn(C)c1.F[P-](F)(F)(F)(F)F,1-octyl-3-methylimidazolium hexafluorophosphate,ABNWoR,CC(C)O,propan-2-ol,AALcwx,CCCCCCCC[n+]1ccn(C)c1,F[P-](F)(F)(F)(F)F,2,,,,314,False,CCCCCCCC[n+]1ccn(C)c1.F[P-](F)(F)(F)(F)F,No changes
YyDrb,293.15,101.0,786.6,Pereiro and Rodriguez (2008e),Liquid,0.0009,1-octyl-3-methylimidazolium hexafluorophosphate,,,CCCCCCCC[n+]1ccn(C)c1.F[P-](F)(F)(F)(F)F,1-octyl-3-methylimidazolium hexafluorophosphate,ABNWoR,CC(C)O,propan-2-ol,AALcwx,CCCCCCCC[n+]1ccn(C)c1,F[P-](F)(F)(F)(F)F,2,,,,315,False,CCCCCCCC[n+]1ccn(C)c1.F[P-](F)(F)(F)(F)F,No changes
YyDrb,293.15,101.0,787.5,Pereiro and Rodriguez (2008e),Liquid,0.0014,1-octyl-3-methylimidazolium hexafluorophosphate,,,CCCCCCCC[n+]1ccn(C)c1.F[P-](F)(F)(F)(F)F,1-octyl-3-methylimidazolium hexafluorophosphate,ABNWoR,CC(C)O,propan-2-ol,AALcwx,CCCCCCCC[n+]1ccn(C)c1,F[P-](F)(F)(F)(F)F,2,,,,316,False,CCCCCCCC[n+]1ccn(C)c1.F[P-](F)(F)(F)(F)F,No changes
YyDrb,293.15,101.0,789.1,Pereiro and Rodriguez (2008e),Liquid,0.0024,1-octyl-3-methylimidazolium hexafluorophosphate,,,CCCCCCCC[n+]1ccn(C)c1.F[P-](F)(F)(F)(F)F,1-octyl-3-methylimidazolium hexafluorophosphate,ABNWoR,CC(C)O,propan-2-ol,AALcwx,CCCCCCCC[n+]1ccn(C)c1,F[P-](F)(F)(F)(F)F,2,,,,317,False,CCCCCCCC[n+]1ccn(C)c1.F[P-](F)(F)(F)(F)F,No changes
YyDrb,293.15,101.0,790.1,Pereiro and Rodriguez (2008e),Liquid,0.003,1-octyl-3-methylimidazolium hexafluorophosphate,,,CCCCCCCC[n+]1ccn(C)c1.F[P-](F)(F)(F)(F)F,1-octyl-3-methylimidazolium hexafluorophosphate,ABNWoR,CC(C)O,propan-2-ol,AALcwx,CCCCCCCC[n+]1ccn(C)c1,F[P-](F)(F)(F)(F)F,2,,,,318,False,CCCCCCCC[n+]1ccn(C)c1.F[P-](F)(F)(F)(F)F,No changes
YyDrb,293.15,101.0,1088.5,Pereiro and Rodriguez (2008e),Liquid,0.3513,1-octyl-3-methylimidazolium hexafluorophosphate,,,CCCCCCCC[n+]1ccn(C)c1.F[P-](F)(F)(F)(F)F,1-octyl-3-methylimidazolium hexafluorophosphate,ABNWoR,CC(C)O,propan-2-ol,AALcwx,CCCCCCCC[n+]1ccn(C)c1,F[P-](F)(F)(F)(F)F,2,,,,319,False,CCCCCCCC[n+]1ccn(C)c1.F[P-](F)(F)(F)(F)F,No changes
YyDrb,293.15,101.0,1109.3,Pereiro and Rodriguez (2008e),Liquid,0.4011,1-octyl-3-methylimidazolium hexafluorophosphate,,,CCCCCCCC[n+]1ccn(C)c1.F[P-](F)(F)(F)(F)F,1-octyl-3-methylimidazolium hexafluorophosphate,ABNWoR,CC(C)O,propan-2-ol,AALcwx,CCCCCCCC[n+]1ccn(C)c1,F[P-](F)(F)(F)(F)F,2,,,,320,False,CCCCCCCC[n+]1ccn(C)c1.F[P-](F)(F)(F)(F)F,No changes
YyDrb,293.15,101.0,1145.1,Pereiro and Rodriguez (2008e),Liquid,0.5057,1-octyl-3-methylimidazolium hexafluorophosphate,,,CCCCCCCC[n+]1ccn(C)c1.F[P-](F)(F)(F)(F)F,1-octyl-3-methylimidazolium hexafluorophosphate,ABNWoR,CC(C)O,propan-2-ol,AALcwx,CCCCCCCC[n+]1ccn(C)c1,F[P-](F)(F)(F)(F)F,2,,,,321,False,CCCCCCCC[n+]1ccn(C)c1.F[P-](F)(F)(F)(F)F,No changes
YyDrb,293.15,101.0,1170.5,Pereiro and Rodriguez (2008e),Liquid,0.5991,1-octyl-3-methylimidazolium hexafluorophosphate,,,CCCCCCCC[n+]1ccn(C)c1.F[P-](F)(F)(F)(F)F,1-octyl-3-methylimidazolium hexafluorophosphate,ABNWoR,CC(C)O,propan-2-ol,AALcwx,CCCCCCCC[n+]1ccn(C)c1,F[P-](F)(F)(F)(F)F,2,,,,322,False,CCCCCCCC[n+]1ccn(C)c1.F[P-](F)(F)(F)(F)F,No changes
YyDrb,293.15,101.0,1192.0,Pereiro and Rodriguez (2008e),Liquid,0.696,1-octyl-3-methylimidazolium hexafluorophosphate,,,CCCCCCCC[n+]1ccn(C)c1.F[P-](F)(F)(F)(F)F,1-octyl-3-methylimidazolium hexafluorophosphate,ABNWoR,CC(C)O,propan-2-ol,AALcwx,CCCCCCCC[n+]1ccn(C)c1,F[P-](F)(F)(F)(F)F,2,,,,323,False,CCCCCCCC[n+]1ccn(C)c1.F[P-](F)(F)(F)(F)F,No changes
YyDrb,293.15,101.0,1210.9,Pereiro and Rodriguez (2008e),Liquid,0.7988,1-octyl-3-methylimidazolium hexafluorophosphate,,,CCCCCCCC[n+]1ccn(C)c1.F[P-](F)(F)(F)(F)F,1-octyl-3-methylimidazolium hexafluorophosphate,ABNWoR,CC(C)O,propan-2-ol,AALcwx,CCCCCCCC[n+]1ccn(C)c1,F[P-](F)(F)(F)(F)F,2,,,,324,False,CCCCCCCC[n+]1ccn(C)c1.F[P-](F)(F)(F)(F)F,No changes
YyDrb,293.15,101.0,1227.1,Pereiro and Rodriguez (2008e),Liquid,0.9035,1-octyl-3-methylimidazolium hexafluorophosphate,,,CCCCCCCC[n+]1ccn(C)c1.F[P-](F)(F)(F)(F)F,1-octyl-3-methylimidazolium hexafluorophosphate,ABNWoR,CC(C)O,propan-2-ol,AALcwx,CCCCCCCC[n+]1ccn(C)c1,F[P-](F)(F)(F)(F)F,2,,,,325,False,CCCCCCCC[n+]1ccn(C)c1.F[P-](F)(F)(F)(F)F,No changes
YyDrb,293.15,101.0,1238.8,Pereiro and Rodriguez (2008e),Liquid,0.9931,1-octyl-3-methylimidazolium hexafluorophosphate,,,CCCCCCCC[n+]1ccn(C)c1.F[P-](F)(F)(F)(F)F,1-octyl-3-methylimidazolium hexafluorophosphate,ABNWoR,CC(C)O,propan-2-ol,AALcwx,CCCCCCCC[n+]1ccn(C)c1,F[P-](F)(F)(F)(F)F,2,,,,326,False,CCCCCCCC[n+]1ccn(C)c1.F[P-](F)(F)(F)(F)F,No changes
YyDrb,293.15,101.0,1239.6,Pereiro and Rodriguez (2008e),Liquid,1.0,1-octyl-3-methylimidazolium hexafluorophosphate,,,CCCCCCCC[n+]1ccn(C)c1.F[P-](F)(F)(F)(F)F,1-octyl-3-methylimidazolium hexafluorophosphate,ABNWoR,CC(C)O,propan-2-ol,AALcwx,CCCCCCCC[n+]1ccn(C)c1,F[P-](F)(F)(F)(F)F,2,,,,327,False,CCCCCCCC[n+]1ccn(C)c1.F[P-](F)(F)(F)(F)F,No changes
YyDrb,298.15,101.0,781.0,Pereiro and Rodriguez (2008e),Liquid,0.0,1-octyl-3-methylimidazolium hexafluorophosphate,,,CCCCCCCC[n+]1ccn(C)c1.F[P-](F)(F)(F)(F)F,1-octyl-3-methylimidazolium hexafluorophosphate,ABNWoR,CC(C)O,propan-2-ol,AALcwx,CCCCCCCC[n+]1ccn(C)c1,F[P-](F)(F)(F)(F)F,2,,,,328,False,CCCCCCCC[n+]1ccn(C)c1.F[P-](F)(F)(F)(F)F,No changes
YyDrb,298.15,101.0,781.7,Pereiro and Rodriguez (2008e),Liquid,0.0004,1-octyl-3-methylimidazolium hexafluorophosphate,,,CCCCCCCC[n+]1ccn(C)c1.F[P-](F)(F)(F)(F)F,1-octyl-3-methylimidazolium hexafluorophosphate,ABNWoR,CC(C)O,propan-2-ol,AALcwx,CCCCCCCC[n+]1ccn(C)c1,F[P-](F)(F)(F)(F)F,2,,,,329,False,CCCCCCCC[n+]1ccn(C)c1.F[P-](F)(F)(F)(F)F,No changes
YyDrb,298.15,101.0,782.6,Pereiro and Rodriguez (2008e),Liquid,0.0009,1-octyl-3-methylimidazolium hexafluorophosphate,,,CCCCCCCC[n+]1ccn(C)c1.F[P-](F)(F)(F)(F)F,1-octyl-3-methylimidazolium hexafluorophosphate,ABNWoR,CC(C)O,propan-2-ol,AALcwx,CCCCCCCC[n+]1ccn(C)c1,F[P-](F)(F)(F)(F)F,2,,,,330,False,CCCCCCCC[n+]1ccn(C)c1.F[P-](F)(F)(F)(F)F,No changes
YyDrb,298.15,101.0,783.5,Pereiro and Rodriguez (2008e),Liquid,0.0014,1-octyl-3-methylimidazolium hexafluorophosphate,,,CCCCCCCC[n+]1ccn(C)c1.F[P-](F)(F)(F)(F)F,1-octyl-3-methylimidazolium hexafluorophosphate,ABNWoR,CC(C)O,propan-2-ol,AALcwx,CCCCCCCC[n+]1ccn(C)c1,F[P-](F)(F)(F)(F)F,2,,,,331,False,CCCCCCCC[n+]1ccn(C)c1.F[P-](F)(F)(F)(F)F,No changes
YyDrb,298.15,101.0,785.1,Pereiro and Rodriguez (2008e),Liquid,0.0024,1-octyl-3-methylimidazolium hexafluorophosphate,,,CCCCCCCC[n+]1ccn(C)c1.F[P-](F)(F)(F)(F)F,1-octyl-3-methylimidazolium hexafluorophosphate,ABNWoR,CC(C)O,propan-2-ol,AALcwx,CCCCCCCC[n+]1ccn(C)c1,F[P-](F)(F)(F)(F)F,2,,,,332,False,CCCCCCCC[n+]1ccn(C)c1.F[P-](F)(F)(F)(F)F,No changes
YyDrb,298.15,101.0,786.1,Pereiro and Rodriguez (2008e),Liquid,0.003,1-octyl-3-methylimidazolium hexafluorophosphate,,,CCCCCCCC[n+]1ccn(C)c1.F[P-](F)(F)(F)(F)F,1-octyl-3-methylimidazolium hexafluorophosphate,ABNWoR,CC(C)O,propan-2-ol,AALcwx,CCCCCCCC[n+]1ccn(C)c1,F[P-](F)(F)(F)(F)F,2,,,,333,False,CCCCCCCC[n+]1ccn(C)c1.F[P-](F)(F)(F)(F)F,No changes
YyDrb,298.15,101.0,790.0,Pereiro and Rodriguez (2008e),Liquid,0.0053,1-octyl-3-methylimidazolium hexafluorophosphate,,,CCCCCCCC[n+]1ccn(C)c1.F[P-](F)(F)(F)(F)F,1-octyl-3-methylimidazolium hexafluorophosphate,ABNWoR,CC(C)O,propan-2-ol,AALcwx,CCCCCCCC[n+]1ccn(C)c1,F[P-](F)(F)(F)(F)F,2,,,,334,False,CCCCCCCC[n+]1ccn(C)c1.F[P-](F)(F)(F)(F)F,No changes
YyDrb,298.15,101.0,1061.7,Pereiro and Rodriguez (2008e),Liquid,0.3036,1-octyl-3-methylimidazolium hexafluorophosphate,,,CCCCCCCC[n+]1ccn(C)c1.F[P-](F)(F)(F)(F)F,1-octyl-3-methylimidazolium hexafluorophosphate,ABNWoR,CC(C)O,propan-2-ol,AALcwx,CCCCCCCC[n+]1ccn(C)c1,F[P-](F)(F)(F)(F)F,2,,,,335,False,CCCCCCCC[n+]1ccn(C)c1.F[P-](F)(F)(F)(F)F,No changes
YyDrb,298.15,101.0,1084.5,Pereiro and Rodriguez (2008e),Liquid,0.3513,1-octyl-3-methylimidazolium hexafluorophosphate,,,CCCCCCCC[n+]1ccn(C)c1.F[P-](F)(F)(F)(F)F,1-octyl-3-methylimidazolium hexafluorophosphate,ABNWoR,CC(C)O,propan-2-ol,AALcwx,CCCCCCCC[n+]1ccn(C)c1,F[P-](F)(F)(F)(F)F,2,,,,336,False,CCCCCCCC[n+]1ccn(C)c1.F[P-](F)(F)(F)(F)F,No changes
YyDrb,298.15,101.0,1105.3,Pereiro and Rodriguez (2008e),Liquid,0.4011,1-octyl-3-methylimidazolium hexafluorophosphate,,,CCCCCCCC[n+]1ccn(C)c1.F[P-](F)(F)(F)(F)F,1-octyl-3-methylimidazolium hexafluorophosphate,ABNWoR,CC(C)O,propan-2-ol,AALcwx,CCCCCCCC[n+]1ccn(C)c1,F[P-](F)(F)(F)(F)F,2,,,,337,False,CCCCCCCC[n+]1ccn(C)c1.F[P-](F)(F)(F)(F)F,No changes