setid,Temperature (K),Pressure (kPa),Density (kg/m3),reference,phases,Mole fraction,Mole fraction of compound name,Weight fraction,Weight fraction of compound name,IL_SMILES,IL_name,IL_ID,Solvent_SMILES,Solvent_name,Solvent_ID,IL_cation_SMILES,IL_anion_SMILES,IL_component_number,Mole fraction of solvent,IL_MW,Solvent_MW,Record_ID,Contains_Metal,Standardized_IL_SMILES,Changes
gDqHz,318.15,100.0,1015.3,Liu et al. (2020c),Liquid,0.1,1-ethyl-3-(2-methoxyethyl)imidazolium bis(trifluoromethylsulfonyl)imide,,,CC[n+]1ccn(CCOC)c1.O=S(=O)([N-]S(=O)(=O)C(F)(F)F)C(F)(F)F,1-ethyl-3-(2-methoxyethyl)imidazolium bis(trifluoromethylsulfonyl)imide,ABflJV,CCO,ethanol,AAIsrh,CC[n+]1ccn(CCOC)c1,O=S(=O)([N-]S(=O)(=O)C(F)(F)F)C(F)(F)F,2,,,,299,False,CC[n+]1ccn(CCOC)c1.O=S(=O)([N-]S(=O)(=O)C(F)(F)F)C(F)(F)F,No changes
gDqHz,318.15,100.0,1148.7,Liu et al. (2020c),Liquid,0.1947,1-ethyl-3-(2-methoxyethyl)imidazolium bis(trifluoromethylsulfonyl)imide,,,CC[n+]1ccn(CCOC)c1.O=S(=O)([N-]S(=O)(=O)C(F)(F)F)C(F)(F)F,1-ethyl-3-(2-methoxyethyl)imidazolium bis(trifluoromethylsulfonyl)imide,ABflJV,CCO,ethanol,AAIsrh,CC[n+]1ccn(CCOC)c1,O=S(=O)([N-]S(=O)(=O)C(F)(F)F)C(F)(F)F,2,,,,300,False,CC[n+]1ccn(CCOC)c1.O=S(=O)([N-]S(=O)(=O)C(F)(F)F)C(F)(F)F,No changes
gDqHz,318.15,100.0,1234.2,Liu et al. (2020c),Liquid,0.2995,1-ethyl-3-(2-methoxyethyl)imidazolium bis(trifluoromethylsulfonyl)imide,,,CC[n+]1ccn(CCOC)c1.O=S(=O)([N-]S(=O)(=O)C(F)(F)F)C(F)(F)F,1-ethyl-3-(2-methoxyethyl)imidazolium bis(trifluoromethylsulfonyl)imide,ABflJV,CCO,ethanol,AAIsrh,CC[n+]1ccn(CCOC)c1,O=S(=O)([N-]S(=O)(=O)C(F)(F)F)C(F)(F)F,2,,,,301,False,CC[n+]1ccn(CCOC)c1.O=S(=O)([N-]S(=O)(=O)C(F)(F)F)C(F)(F)F,No changes
gDqHz,318.15,100.0,1292.4,Liu et al. (2020c),Liquid,0.4,1-ethyl-3-(2-methoxyethyl)imidazolium bis(trifluoromethylsulfonyl)imide,,,CC[n+]1ccn(CCOC)c1.O=S(=O)([N-]S(=O)(=O)C(F)(F)F)C(F)(F)F,1-ethyl-3-(2-methoxyethyl)imidazolium bis(trifluoromethylsulfonyl)imide,ABflJV,CCO,ethanol,AAIsrh,CC[n+]1ccn(CCOC)c1,O=S(=O)([N-]S(=O)(=O)C(F)(F)F)C(F)(F)F,2,,,,302,False,CC[n+]1ccn(CCOC)c1.O=S(=O)([N-]S(=O)(=O)C(F)(F)F)C(F)(F)F,No changes
gDqHz,318.15,100.0,1337.6,Liu et al. (2020c),Liquid,0.5002,1-ethyl-3-(2-methoxyethyl)imidazolium bis(trifluoromethylsulfonyl)imide,,,CC[n+]1ccn(CCOC)c1.O=S(=O)([N-]S(=O)(=O)C(F)(F)F)C(F)(F)F,1-ethyl-3-(2-methoxyethyl)imidazolium bis(trifluoromethylsulfonyl)imide,ABflJV,CCO,ethanol,AAIsrh,CC[n+]1ccn(CCOC)c1,O=S(=O)([N-]S(=O)(=O)C(F)(F)F)C(F)(F)F,2,,,,303,False,CC[n+]1ccn(CCOC)c1.O=S(=O)([N-]S(=O)(=O)C(F)(F)F)C(F)(F)F,No changes
gDqHz,318.15,100.0,1369.6,Liu et al. (2020c),Liquid,0.6001,1-ethyl-3-(2-methoxyethyl)imidazolium bis(trifluoromethylsulfonyl)imide,,,CC[n+]1ccn(CCOC)c1.O=S(=O)([N-]S(=O)(=O)C(F)(F)F)C(F)(F)F,1-ethyl-3-(2-methoxyethyl)imidazolium bis(trifluoromethylsulfonyl)imide,ABflJV,CCO,ethanol,AAIsrh,CC[n+]1ccn(CCOC)c1,O=S(=O)([N-]S(=O)(=O)C(F)(F)F)C(F)(F)F,2,,,,304,False,CC[n+]1ccn(CCOC)c1.O=S(=O)([N-]S(=O)(=O)C(F)(F)F)C(F)(F)F,No changes
gDqHz,318.15,100.0,1394.4,Liu et al. (2020c),Liquid,0.6999,1-ethyl-3-(2-methoxyethyl)imidazolium bis(trifluoromethylsulfonyl)imide,,,CC[n+]1ccn(CCOC)c1.O=S(=O)([N-]S(=O)(=O)C(F)(F)F)C(F)(F)F,1-ethyl-3-(2-methoxyethyl)imidazolium bis(trifluoromethylsulfonyl)imide,ABflJV,CCO,ethanol,AAIsrh,CC[n+]1ccn(CCOC)c1,O=S(=O)([N-]S(=O)(=O)C(F)(F)F)C(F)(F)F,2,,,,305,False,CC[n+]1ccn(CCOC)c1.O=S(=O)([N-]S(=O)(=O)C(F)(F)F)C(F)(F)F,No changes
gDqHz,318.15,100.0,1413.61,Liu et al. (2020c),Liquid,0.8,1-ethyl-3-(2-methoxyethyl)imidazolium bis(trifluoromethylsulfonyl)imide,,,CC[n+]1ccn(CCOC)c1.O=S(=O)([N-]S(=O)(=O)C(F)(F)F)C(F)(F)F,1-ethyl-3-(2-methoxyethyl)imidazolium bis(trifluoromethylsulfonyl)imide,ABflJV,CCO,ethanol,AAIsrh,CC[n+]1ccn(CCOC)c1,O=S(=O)([N-]S(=O)(=O)C(F)(F)F)C(F)(F)F,2,,,,306,False,CC[n+]1ccn(CCOC)c1.O=S(=O)([N-]S(=O)(=O)C(F)(F)F)C(F)(F)F,No changes
gDqHz,318.15,100.0,1429.27,Liu et al. (2020c),Liquid,0.9,1-ethyl-3-(2-methoxyethyl)imidazolium bis(trifluoromethylsulfonyl)imide,,,CC[n+]1ccn(CCOC)c1.O=S(=O)([N-]S(=O)(=O)C(F)(F)F)C(F)(F)F,1-ethyl-3-(2-methoxyethyl)imidazolium bis(trifluoromethylsulfonyl)imide,ABflJV,CCO,ethanol,AAIsrh,CC[n+]1ccn(CCOC)c1,O=S(=O)([N-]S(=O)(=O)C(F)(F)F)C(F)(F)F,2,,,,307,False,CC[n+]1ccn(CCOC)c1.O=S(=O)([N-]S(=O)(=O)C(F)(F)F)C(F)(F)F,No changes
gDqHz,318.15,100.0,1441.64,Liu et al. (2020c),Liquid,1.0,1-ethyl-3-(2-methoxyethyl)imidazolium bis(trifluoromethylsulfonyl)imide,,,CC[n+]1ccn(CCOC)c1.O=S(=O)([N-]S(=O)(=O)C(F)(F)F)C(F)(F)F,1-ethyl-3-(2-methoxyethyl)imidazolium bis(trifluoromethylsulfonyl)imide,ABflJV,CCO,ethanol,AAIsrh,CC[n+]1ccn(CCOC)c1,O=S(=O)([N-]S(=O)(=O)C(F)(F)F)C(F)(F)F,2,,,,308,False,CC[n+]1ccn(CCOC)c1.O=S(=O)([N-]S(=O)(=O)C(F)(F)F)C(F)(F)F,No changes
QQvxj,278.15,101.0,892.8,Vercher et al. (2007),Liquid,0.0499,1-ethyl-3-methylimidazolium trifluoromethanesulfonate,,,CC[n+]1ccn(C)c1.O=S(=O)([O-])C(F)(F)F,1-ethyl-3-methylimidazolium trifluoromethanesulfonate,AAyCVz,CCO,ethanol,AAIsrh,CC[n+]1ccn(C)c1,O=S(=O)([O-])C(F)(F)F,2,,,,309,False,CC[n+]1ccn(C)c1.O=S(=O)([O-])C(F)(F)F,No changes
QQvxj,278.15,101.0,965.56,Vercher et al. (2007),Liquid,0.1,1-ethyl-3-methylimidazolium trifluoromethanesulfonate,,,CC[n+]1ccn(C)c1.O=S(=O)([O-])C(F)(F)F,1-ethyl-3-methylimidazolium trifluoromethanesulfonate,AAyCVz,CCO,ethanol,AAIsrh,CC[n+]1ccn(C)c1,O=S(=O)([O-])C(F)(F)F,2,,,,310,False,CC[n+]1ccn(C)c1.O=S(=O)([O-])C(F)(F)F,No changes
QQvxj,278.15,101.0,1025.77,Vercher et al. (2007),Liquid,0.1503,1-ethyl-3-methylimidazolium trifluoromethanesulfonate,,,CC[n+]1ccn(C)c1.O=S(=O)([O-])C(F)(F)F,1-ethyl-3-methylimidazolium trifluoromethanesulfonate,AAyCVz,CCO,ethanol,AAIsrh,CC[n+]1ccn(C)c1,O=S(=O)([O-])C(F)(F)F,2,,,,311,False,CC[n+]1ccn(C)c1.O=S(=O)([O-])C(F)(F)F,No changes
QQvxj,278.15,101.0,1075.78,Vercher et al. (2007),Liquid,0.1999,1-ethyl-3-methylimidazolium trifluoromethanesulfonate,,,CC[n+]1ccn(C)c1.O=S(=O)([O-])C(F)(F)F,1-ethyl-3-methylimidazolium trifluoromethanesulfonate,AAyCVz,CCO,ethanol,AAIsrh,CC[n+]1ccn(C)c1,O=S(=O)([O-])C(F)(F)F,2,,,,312,False,CC[n+]1ccn(C)c1.O=S(=O)([O-])C(F)(F)F,No changes
QQvxj,278.15,101.0,1156.45,Vercher et al. (2007),Liquid,0.3009,1-ethyl-3-methylimidazolium trifluoromethanesulfonate,,,CC[n+]1ccn(C)c1.O=S(=O)([O-])C(F)(F)F,1-ethyl-3-methylimidazolium trifluoromethanesulfonate,AAyCVz,CCO,ethanol,AAIsrh,CC[n+]1ccn(C)c1,O=S(=O)([O-])C(F)(F)F,2,,,,313,False,CC[n+]1ccn(C)c1.O=S(=O)([O-])C(F)(F)F,No changes
QQvxj,278.15,101.0,1216.2,Vercher et al. (2007),Liquid,0.4001,1-ethyl-3-methylimidazolium trifluoromethanesulfonate,,,CC[n+]1ccn(C)c1.O=S(=O)([O-])C(F)(F)F,1-ethyl-3-methylimidazolium trifluoromethanesulfonate,AAyCVz,CCO,ethanol,AAIsrh,CC[n+]1ccn(C)c1,O=S(=O)([O-])C(F)(F)F,2,,,,314,False,CC[n+]1ccn(C)c1.O=S(=O)([O-])C(F)(F)F,No changes
QQvxj,278.15,101.0,1264.2,Vercher et al. (2007),Liquid,0.5015,1-ethyl-3-methylimidazolium trifluoromethanesulfonate,,,CC[n+]1ccn(C)c1.O=S(=O)([O-])C(F)(F)F,1-ethyl-3-methylimidazolium trifluoromethanesulfonate,AAyCVz,CCO,ethanol,AAIsrh,CC[n+]1ccn(C)c1,O=S(=O)([O-])C(F)(F)F,2,,,,315,False,CC[n+]1ccn(C)c1.O=S(=O)([O-])C(F)(F)F,No changes
QQvxj,278.15,101.0,1299.4,Vercher et al. (2007),Liquid,0.5932,1-ethyl-3-methylimidazolium trifluoromethanesulfonate,,,CC[n+]1ccn(C)c1.O=S(=O)([O-])C(F)(F)F,1-ethyl-3-methylimidazolium trifluoromethanesulfonate,AAyCVz,CCO,ethanol,AAIsrh,CC[n+]1ccn(C)c1,O=S(=O)([O-])C(F)(F)F,2,,,,316,False,CC[n+]1ccn(C)c1.O=S(=O)([O-])C(F)(F)F,No changes
QQvxj,278.15,101.0,1331.1,Vercher et al. (2007),Liquid,0.6928,1-ethyl-3-methylimidazolium trifluoromethanesulfonate,,,CC[n+]1ccn(C)c1.O=S(=O)([O-])C(F)(F)F,1-ethyl-3-methylimidazolium trifluoromethanesulfonate,AAyCVz,CCO,ethanol,AAIsrh,CC[n+]1ccn(C)c1,O=S(=O)([O-])C(F)(F)F,2,,,,317,False,CC[n+]1ccn(C)c1.O=S(=O)([O-])C(F)(F)F,No changes
QQvxj,278.15,101.0,1359.8,Vercher et al. (2007),Liquid,0.802,1-ethyl-3-methylimidazolium trifluoromethanesulfonate,,,CC[n+]1ccn(C)c1.O=S(=O)([O-])C(F)(F)F,1-ethyl-3-methylimidazolium trifluoromethanesulfonate,AAyCVz,CCO,ethanol,AAIsrh,CC[n+]1ccn(C)c1,O=S(=O)([O-])C(F)(F)F,2,,,,318,False,CC[n+]1ccn(C)c1.O=S(=O)([O-])C(F)(F)F,No changes
QQvxj,278.15,101.0,1371.2,Vercher et al. (2007),Liquid,0.8517,1-ethyl-3-methylimidazolium trifluoromethanesulfonate,,,CC[n+]1ccn(C)c1.O=S(=O)([O-])C(F)(F)F,1-ethyl-3-methylimidazolium trifluoromethanesulfonate,AAyCVz,CCO,ethanol,AAIsrh,CC[n+]1ccn(C)c1,O=S(=O)([O-])C(F)(F)F,2,,,,319,False,CC[n+]1ccn(C)c1.O=S(=O)([O-])C(F)(F)F,No changes
QQvxj,278.15,101.0,1382.0,Vercher et al. (2007),Liquid,0.9017,1-ethyl-3-methylimidazolium trifluoromethanesulfonate,,,CC[n+]1ccn(C)c1.O=S(=O)([O-])C(F)(F)F,1-ethyl-3-methylimidazolium trifluoromethanesulfonate,AAyCVz,CCO,ethanol,AAIsrh,CC[n+]1ccn(C)c1,O=S(=O)([O-])C(F)(F)F,2,,,,320,False,CC[n+]1ccn(C)c1.O=S(=O)([O-])C(F)(F)F,No changes
QQvxj,278.15,101.0,1391.4,Vercher et al. (2007),Liquid,0.9492,1-ethyl-3-methylimidazolium trifluoromethanesulfonate,,,CC[n+]1ccn(C)c1.O=S(=O)([O-])C(F)(F)F,1-ethyl-3-methylimidazolium trifluoromethanesulfonate,AAyCVz,CCO,ethanol,AAIsrh,CC[n+]1ccn(C)c1,O=S(=O)([O-])C(F)(F)F,2,,,,321,False,CC[n+]1ccn(C)c1.O=S(=O)([O-])C(F)(F)F,No changes
QQvxj,288.15,101.0,884.25,Vercher et al. (2007),Liquid,0.0499,1-ethyl-3-methylimidazolium trifluoromethanesulfonate,,,CC[n+]1ccn(C)c1.O=S(=O)([O-])C(F)(F)F,1-ethyl-3-methylimidazolium trifluoromethanesulfonate,AAyCVz,CCO,ethanol,AAIsrh,CC[n+]1ccn(C)c1,O=S(=O)([O-])C(F)(F)F,2,,,,322,False,CC[n+]1ccn(C)c1.O=S(=O)([O-])C(F)(F)F,No changes
QQvxj,288.15,101.0,956.95,Vercher et al. (2007),Liquid,0.1,1-ethyl-3-methylimidazolium trifluoromethanesulfonate,,,CC[n+]1ccn(C)c1.O=S(=O)([O-])C(F)(F)F,1-ethyl-3-methylimidazolium trifluoromethanesulfonate,AAyCVz,CCO,ethanol,AAIsrh,CC[n+]1ccn(C)c1,O=S(=O)([O-])C(F)(F)F,2,,,,323,False,CC[n+]1ccn(C)c1.O=S(=O)([O-])C(F)(F)F,No changes
QQvxj,288.15,101.0,1017.12,Vercher et al. (2007),Liquid,0.1503,1-ethyl-3-methylimidazolium trifluoromethanesulfonate,,,CC[n+]1ccn(C)c1.O=S(=O)([O-])C(F)(F)F,1-ethyl-3-methylimidazolium trifluoromethanesulfonate,AAyCVz,CCO,ethanol,AAIsrh,CC[n+]1ccn(C)c1,O=S(=O)([O-])C(F)(F)F,2,,,,324,False,CC[n+]1ccn(C)c1.O=S(=O)([O-])C(F)(F)F,No changes
QQvxj,288.15,101.0,1067.12,Vercher et al. (2007),Liquid,0.1999,1-ethyl-3-methylimidazolium trifluoromethanesulfonate,,,CC[n+]1ccn(C)c1.O=S(=O)([O-])C(F)(F)F,1-ethyl-3-methylimidazolium trifluoromethanesulfonate,AAyCVz,CCO,ethanol,AAIsrh,CC[n+]1ccn(C)c1,O=S(=O)([O-])C(F)(F)F,2,,,,325,False,CC[n+]1ccn(C)c1.O=S(=O)([O-])C(F)(F)F,No changes
QQvxj,288.15,101.0,1147.78,Vercher et al. (2007),Liquid,0.3009,1-ethyl-3-methylimidazolium trifluoromethanesulfonate,,,CC[n+]1ccn(C)c1.O=S(=O)([O-])C(F)(F)F,1-ethyl-3-methylimidazolium trifluoromethanesulfonate,AAyCVz,CCO,ethanol,AAIsrh,CC[n+]1ccn(C)c1,O=S(=O)([O-])C(F)(F)F,2,,,,326,False,CC[n+]1ccn(C)c1.O=S(=O)([O-])C(F)(F)F,No changes
QQvxj,288.15,101.0,1207.5,Vercher et al. (2007),Liquid,0.4001,1-ethyl-3-methylimidazolium trifluoromethanesulfonate,,,CC[n+]1ccn(C)c1.O=S(=O)([O-])C(F)(F)F,1-ethyl-3-methylimidazolium trifluoromethanesulfonate,AAyCVz,CCO,ethanol,AAIsrh,CC[n+]1ccn(C)c1,O=S(=O)([O-])C(F)(F)F,2,,,,327,False,CC[n+]1ccn(C)c1.O=S(=O)([O-])C(F)(F)F,No changes
QQvxj,288.15,101.0,1255.5,Vercher et al. (2007),Liquid,0.5015,1-ethyl-3-methylimidazolium trifluoromethanesulfonate,,,CC[n+]1ccn(C)c1.O=S(=O)([O-])C(F)(F)F,1-ethyl-3-methylimidazolium trifluoromethanesulfonate,AAyCVz,CCO,ethanol,AAIsrh,CC[n+]1ccn(C)c1,O=S(=O)([O-])C(F)(F)F,2,,,,328,False,CC[n+]1ccn(C)c1.O=S(=O)([O-])C(F)(F)F,No changes
QQvxj,288.15,101.0,1290.8,Vercher et al. (2007),Liquid,0.5932,1-ethyl-3-methylimidazolium trifluoromethanesulfonate,,,CC[n+]1ccn(C)c1.O=S(=O)([O-])C(F)(F)F,1-ethyl-3-methylimidazolium trifluoromethanesulfonate,AAyCVz,CCO,ethanol,AAIsrh,CC[n+]1ccn(C)c1,O=S(=O)([O-])C(F)(F)F,2,,,,329,False,CC[n+]1ccn(C)c1.O=S(=O)([O-])C(F)(F)F,No changes
QQvxj,288.15,101.0,1322.5,Vercher et al. (2007),Liquid,0.6928,1-ethyl-3-methylimidazolium trifluoromethanesulfonate,,,CC[n+]1ccn(C)c1.O=S(=O)([O-])C(F)(F)F,1-ethyl-3-methylimidazolium trifluoromethanesulfonate,AAyCVz,CCO,ethanol,AAIsrh,CC[n+]1ccn(C)c1,O=S(=O)([O-])C(F)(F)F,2,,,,330,False,CC[n+]1ccn(C)c1.O=S(=O)([O-])C(F)(F)F,No changes
QQvxj,288.15,101.0,1351.2,Vercher et al. (2007),Liquid,0.802,1-ethyl-3-methylimidazolium trifluoromethanesulfonate,,,CC[n+]1ccn(C)c1.O=S(=O)([O-])C(F)(F)F,1-ethyl-3-methylimidazolium trifluoromethanesulfonate,AAyCVz,CCO,ethanol,AAIsrh,CC[n+]1ccn(C)c1,O=S(=O)([O-])C(F)(F)F,2,,,,331,False,CC[n+]1ccn(C)c1.O=S(=O)([O-])C(F)(F)F,No changes
QQvxj,288.15,101.0,1362.7,Vercher et al. (2007),Liquid,0.8517,1-ethyl-3-methylimidazolium trifluoromethanesulfonate,,,CC[n+]1ccn(C)c1.O=S(=O)([O-])C(F)(F)F,1-ethyl-3-methylimidazolium trifluoromethanesulfonate,AAyCVz,CCO,ethanol,AAIsrh,CC[n+]1ccn(C)c1,O=S(=O)([O-])C(F)(F)F,2,,,,332,False,CC[n+]1ccn(C)c1.O=S(=O)([O-])C(F)(F)F,No changes
QQvxj,288.15,101.0,1373.5,Vercher et al. (2007),Liquid,0.9017,1-ethyl-3-methylimidazolium trifluoromethanesulfonate,,,CC[n+]1ccn(C)c1.O=S(=O)([O-])C(F)(F)F,1-ethyl-3-methylimidazolium trifluoromethanesulfonate,AAyCVz,CCO,ethanol,AAIsrh,CC[n+]1ccn(C)c1,O=S(=O)([O-])C(F)(F)F,2,,,,333,False,CC[n+]1ccn(C)c1.O=S(=O)([O-])C(F)(F)F,No changes
QQvxj,288.15,101.0,1382.9,Vercher et al. (2007),Liquid,0.9492,1-ethyl-3-methylimidazolium trifluoromethanesulfonate,,,CC[n+]1ccn(C)c1.O=S(=O)([O-])C(F)(F)F,1-ethyl-3-methylimidazolium trifluoromethanesulfonate,AAyCVz,CCO,ethanol,AAIsrh,CC[n+]1ccn(C)c1,O=S(=O)([O-])C(F)(F)F,2,,,,334,False,CC[n+]1ccn(C)c1.O=S(=O)([O-])C(F)(F)F,No changes
QQvxj,298.15,101.0,875.66,Vercher et al. (2007),Liquid,0.0499,1-ethyl-3-methylimidazolium trifluoromethanesulfonate,,,CC[n+]1ccn(C)c1.O=S(=O)([O-])C(F)(F)F,1-ethyl-3-methylimidazolium trifluoromethanesulfonate,AAyCVz,CCO,ethanol,AAIsrh,CC[n+]1ccn(C)c1,O=S(=O)([O-])C(F)(F)F,2,,,,335,False,CC[n+]1ccn(C)c1.O=S(=O)([O-])C(F)(F)F,No changes
QQvxj,298.15,101.0,948.32,Vercher et al. (2007),Liquid,0.1,1-ethyl-3-methylimidazolium trifluoromethanesulfonate,,,CC[n+]1ccn(C)c1.O=S(=O)([O-])C(F)(F)F,1-ethyl-3-methylimidazolium trifluoromethanesulfonate,AAyCVz,CCO,ethanol,AAIsrh,CC[n+]1ccn(C)c1,O=S(=O)([O-])C(F)(F)F,2,,,,336,False,CC[n+]1ccn(C)c1.O=S(=O)([O-])C(F)(F)F,No changes
QQvxj,298.15,101.0,1008.47,Vercher et al. (2007),Liquid,0.1503,1-ethyl-3-methylimidazolium trifluoromethanesulfonate,,,CC[n+]1ccn(C)c1.O=S(=O)([O-])C(F)(F)F,1-ethyl-3-methylimidazolium trifluoromethanesulfonate,AAyCVz,CCO,ethanol,AAIsrh,CC[n+]1ccn(C)c1,O=S(=O)([O-])C(F)(F)F,2,,,,337,False,CC[n+]1ccn(C)c1.O=S(=O)([O-])C(F)(F)F,No changes
QQvxj,298.15,101.0,1058.46,Vercher et al. (2007),Liquid,0.1999,1-ethyl-3-methylimidazolium trifluoromethanesulfonate,,,CC[n+]1ccn(C)c1.O=S(=O)([O-])C(F)(F)F,1-ethyl-3-methylimidazolium trifluoromethanesulfonate,AAyCVz,CCO,ethanol,AAIsrh,CC[n+]1ccn(C)c1,O=S(=O)([O-])C(F)(F)F,2,,,,338,False,CC[n+]1ccn(C)c1.O=S(=O)([O-])C(F)(F)F,No changes
QQvxj,298.15,101.0,1139.14,Vercher et al. (2007),Liquid,0.3009,1-ethyl-3-methylimidazolium trifluoromethanesulfonate,,,CC[n+]1ccn(C)c1.O=S(=O)([O-])C(F)(F)F,1-ethyl-3-methylimidazolium trifluoromethanesulfonate,AAyCVz,CCO,ethanol,AAIsrh,CC[n+]1ccn(C)c1,O=S(=O)([O-])C(F)(F)F,2,,,,339,False,CC[n+]1ccn(C)c1.O=S(=O)([O-])C(F)(F)F,No changes
QQvxj,298.15,101.0,1198.9,Vercher et al. (2007),Liquid,0.4001,1-ethyl-3-methylimidazolium trifluoromethanesulfonate,,,CC[n+]1ccn(C)c1.O=S(=O)([O-])C(F)(F)F,1-ethyl-3-methylimidazolium trifluoromethanesulfonate,AAyCVz,CCO,ethanol,AAIsrh,CC[n+]1ccn(C)c1,O=S(=O)([O-])C(F)(F)F,2,,,,340,False,CC[n+]1ccn(C)c1.O=S(=O)([O-])C(F)(F)F,No changes
QQvxj,298.15,101.0,1247.0,Vercher et al. (2007),Liquid,0.5015,1-ethyl-3-methylimidazolium trifluoromethanesulfonate,,,CC[n+]1ccn(C)c1.O=S(=O)([O-])C(F)(F)F,1-ethyl-3-methylimidazolium trifluoromethanesulfonate,AAyCVz,CCO,ethanol,AAIsrh,CC[n+]1ccn(C)c1,O=S(=O)([O-])C(F)(F)F,2,,,,341,False,CC[n+]1ccn(C)c1.O=S(=O)([O-])C(F)(F)F,No changes
QQvxj,298.15,101.0,1282.3,Vercher et al. (2007),Liquid,0.5932,1-ethyl-3-methylimidazolium trifluoromethanesulfonate,,,CC[n+]1ccn(C)c1.O=S(=O)([O-])C(F)(F)F,1-ethyl-3-methylimidazolium trifluoromethanesulfonate,AAyCVz,CCO,ethanol,AAIsrh,CC[n+]1ccn(C)c1,O=S(=O)([O-])C(F)(F)F,2,,,,342,False,CC[n+]1ccn(C)c1.O=S(=O)([O-])C(F)(F)F,No changes
QQvxj,298.15,101.0,1314.0,Vercher et al. (2007),Liquid,0.6928,1-ethyl-3-methylimidazolium trifluoromethanesulfonate,,,CC[n+]1ccn(C)c1.O=S(=O)([O-])C(F)(F)F,1-ethyl-3-methylimidazolium trifluoromethanesulfonate,AAyCVz,CCO,ethanol,AAIsrh,CC[n+]1ccn(C)c1,O=S(=O)([O-])C(F)(F)F,2,,,,343,False,CC[n+]1ccn(C)c1.O=S(=O)([O-])C(F)(F)F,No changes
QQvxj,298.15,101.0,1342.7,Vercher et al. (2007),Liquid,0.802,1-ethyl-3-methylimidazolium trifluoromethanesulfonate,,,CC[n+]1ccn(C)c1.O=S(=O)([O-])C(F)(F)F,1-ethyl-3-methylimidazolium trifluoromethanesulfonate,AAyCVz,CCO,ethanol,AAIsrh,CC[n+]1ccn(C)c1,O=S(=O)([O-])C(F)(F)F,2,,,,344,False,CC[n+]1ccn(C)c1.O=S(=O)([O-])C(F)(F)F,No changes
QQvxj,298.15,101.0,1354.2,Vercher et al. (2007),Liquid,0.8517,1-ethyl-3-methylimidazolium trifluoromethanesulfonate,,,CC[n+]1ccn(C)c1.O=S(=O)([O-])C(F)(F)F,1-ethyl-3-methylimidazolium trifluoromethanesulfonate,AAyCVz,CCO,ethanol,AAIsrh,CC[n+]1ccn(C)c1,O=S(=O)([O-])C(F)(F)F,2,,,,345,False,CC[n+]1ccn(C)c1.O=S(=O)([O-])C(F)(F)F,No changes
QQvxj,298.15,101.0,1365.0,Vercher et al. (2007),Liquid,0.9017,1-ethyl-3-methylimidazolium trifluoromethanesulfonate,,,CC[n+]1ccn(C)c1.O=S(=O)([O-])C(F)(F)F,1-ethyl-3-methylimidazolium trifluoromethanesulfonate,AAyCVz,CCO,ethanol,AAIsrh,CC[n+]1ccn(C)c1,O=S(=O)([O-])C(F)(F)F,2,,,,346,False,CC[n+]1ccn(C)c1.O=S(=O)([O-])C(F)(F)F,No changes
QQvxj,298.15,101.0,1374.4,Vercher et al. (2007),Liquid,0.9492,1-ethyl-3-methylimidazolium trifluoromethanesulfonate,,,CC[n+]1ccn(C)c1.O=S(=O)([O-])C(F)(F)F,1-ethyl-3-methylimidazolium trifluoromethanesulfonate,AAyCVz,CCO,ethanol,AAIsrh,CC[n+]1ccn(C)c1,O=S(=O)([O-])C(F)(F)F,2,,,,347,False,CC[n+]1ccn(C)c1.O=S(=O)([O-])C(F)(F)F,No changes
QQvxj,308.15,101.0,867.01,Vercher et al. (2007),Liquid,0.0499,1-ethyl-3-methylimidazolium trifluoromethanesulfonate,,,CC[n+]1ccn(C)c1.O=S(=O)([O-])C(F)(F)F,1-ethyl-3-methylimidazolium trifluoromethanesulfonate,AAyCVz,CCO,ethanol,AAIsrh,CC[n+]1ccn(C)c1,O=S(=O)([O-])C(F)(F)F,2,,,,348,False,CC[n+]1ccn(C)c1.O=S(=O)([O-])C(F)(F)F,No changes
QQvxj,308.15,101.0,939.65,Vercher et al. (2007),Liquid,0.1,1-ethyl-3-methylimidazolium trifluoromethanesulfonate,,,CC[n+]1ccn(C)c1.O=S(=O)([O-])C(F)(F)F,1-ethyl-3-methylimidazolium trifluoromethanesulfonate,AAyCVz,CCO,ethanol,AAIsrh,CC[n+]1ccn(C)c1,O=S(=O)([O-])C(F)(F)F,2,,,,349,False,CC[n+]1ccn(C)c1.O=S(=O)([O-])C(F)(F)F,No changes
QQvxj,308.15,101.0,999.81,Vercher et al. (2007),Liquid,0.1503,1-ethyl-3-methylimidazolium trifluoromethanesulfonate,,,CC[n+]1ccn(C)c1.O=S(=O)([O-])C(F)(F)F,1-ethyl-3-methylimidazolium trifluoromethanesulfonate,AAyCVz,CCO,ethanol,AAIsrh,CC[n+]1ccn(C)c1,O=S(=O)([O-])C(F)(F)F,2,,,,350,False,CC[n+]1ccn(C)c1.O=S(=O)([O-])C(F)(F)F,No changes
QQvxj,308.15,101.0,1049.81,Vercher et al. (2007),Liquid,0.1999,1-ethyl-3-methylimidazolium trifluoromethanesulfonate,,,CC[n+]1ccn(C)c1.O=S(=O)([O-])C(F)(F)F,1-ethyl-3-methylimidazolium trifluoromethanesulfonate,AAyCVz,CCO,ethanol,AAIsrh,CC[n+]1ccn(C)c1,O=S(=O)([O-])C(F)(F)F,2,,,,351,False,CC[n+]1ccn(C)c1.O=S(=O)([O-])C(F)(F)F,No changes
QQvxj,308.15,101.0,1130.53,Vercher et al. (2007),Liquid,0.3009,1-ethyl-3-methylimidazolium trifluoromethanesulfonate,,,CC[n+]1ccn(C)c1.O=S(=O)([O-])C(F)(F)F,1-ethyl-3-methylimidazolium trifluoromethanesulfonate,AAyCVz,CCO,ethanol,AAIsrh,CC[n+]1ccn(C)c1,O=S(=O)([O-])C(F)(F)F,2,,,,352,False,CC[n+]1ccn(C)c1.O=S(=O)([O-])C(F)(F)F,No changes
QQvxj,308.15,101.0,1190.3,Vercher et al. (2007),Liquid,0.4001,1-ethyl-3-methylimidazolium trifluoromethanesulfonate,,,CC[n+]1ccn(C)c1.O=S(=O)([O-])C(F)(F)F,1-ethyl-3-methylimidazolium trifluoromethanesulfonate,AAyCVz,CCO,ethanol,AAIsrh,CC[n+]1ccn(C)c1,O=S(=O)([O-])C(F)(F)F,2,,,,353,False,CC[n+]1ccn(C)c1.O=S(=O)([O-])C(F)(F)F,No changes