setid,Temperature (K),Pressure (kPa),Density (kg/m3),reference,phases,Mole fraction,Mole fraction of compound name,Weight fraction,Weight fraction of compound name,IL_SMILES,IL_name,IL_ID,Solvent_SMILES,Solvent_name,Solvent_ID,IL_cation_SMILES,IL_anion_SMILES,IL_component_number,Mole fraction of solvent,IL_MW,Solvent_MW,Record_ID,Contains_Metal,Standardized_IL_SMILES,Changes
TvZFe,308.15,101.0,887.012,Shao et al. (2012),Liquid,0.1998999999999999,ethanol,,,CC[NH+]1CCNCC1.CCC(=O)[O-],N-ethylpiperazinium propionate,AAkKSn,CCO,ethanol,AAIsrh,CC[NH+]1CCNCC1,CCC(=O)[O-],2,0.8001,,,864,False,CC[NH+]1CCNCC1.CCC(=O)[O-],No changes
TvZFe,308.15,101.0,844.0,Shao et al. (2012),Liquid,0.1001999999999999,ethanol,,,CC[NH+]1CCNCC1.CCC(=O)[O-],N-ethylpiperazinium propionate,AAkKSn,CCO,ethanol,AAIsrh,CC[NH+]1CCNCC1,CCC(=O)[O-],2,0.8998,,,865,False,CC[NH+]1CCNCC1.CCC(=O)[O-],No changes
TvZFe,308.15,101.0,776.9,Shao et al. (2012),Liquid,0.0,ethanol,,,CC[NH+]1CCNCC1.CCC(=O)[O-],N-ethylpiperazinium propionate,AAkKSn,CCO,ethanol,AAIsrh,CC[NH+]1CCNCC1,CCC(=O)[O-],2,1.0,,,866,False,CC[NH+]1CCNCC1.CCC(=O)[O-],No changes
TvZFe,313.15,101.0,996.2,Shao et al. (2012),Liquid,1.0,ethanol,,,CC[NH+]1CCNCC1.CCC(=O)[O-],N-ethylpiperazinium propionate,AAkKSn,CCO,ethanol,AAIsrh,CC[NH+]1CCNCC1,CCC(=O)[O-],2,0.0,,,867,False,CC[NH+]1CCNCC1.CCC(=O)[O-],No changes
TvZFe,313.15,101.0,990.7,Shao et al. (2012),Liquid,0.9029,ethanol,,,CC[NH+]1CCNCC1.CCC(=O)[O-],N-ethylpiperazinium propionate,AAkKSn,CCO,ethanol,AAIsrh,CC[NH+]1CCNCC1,CCC(=O)[O-],2,0.0971,,,868,False,CC[NH+]1CCNCC1.CCC(=O)[O-],No changes
TvZFe,313.15,101.0,983.232,Shao et al. (2012),Liquid,0.7983,ethanol,,,CC[NH+]1CCNCC1.CCC(=O)[O-],N-ethylpiperazinium propionate,AAkKSn,CCO,ethanol,AAIsrh,CC[NH+]1CCNCC1,CCC(=O)[O-],2,0.2017,,,869,False,CC[NH+]1CCNCC1.CCC(=O)[O-],No changes
TvZFe,313.15,101.0,974.526,Shao et al. (2012),Liquid,0.6967,ethanol,,,CC[NH+]1CCNCC1.CCC(=O)[O-],N-ethylpiperazinium propionate,AAkKSn,CCO,ethanol,AAIsrh,CC[NH+]1CCNCC1,CCC(=O)[O-],2,0.3033,,,870,False,CC[NH+]1CCNCC1.CCC(=O)[O-],No changes
TvZFe,313.15,101.0,964.592,Shao et al. (2012),Liquid,0.6017,ethanol,,,CC[NH+]1CCNCC1.CCC(=O)[O-],N-ethylpiperazinium propionate,AAkKSn,CCO,ethanol,AAIsrh,CC[NH+]1CCNCC1,CCC(=O)[O-],2,0.3983,,,871,False,CC[NH+]1CCNCC1.CCC(=O)[O-],No changes
TvZFe,313.15,101.0,951.35,Shao et al. (2012),Liquid,0.4999,ethanol,,,CC[NH+]1CCNCC1.CCC(=O)[O-],N-ethylpiperazinium propionate,AAkKSn,CCO,ethanol,AAIsrh,CC[NH+]1CCNCC1,CCC(=O)[O-],2,0.5001,,,872,False,CC[NH+]1CCNCC1.CCC(=O)[O-],No changes
TvZFe,313.15,101.0,934.623,Shao et al. (2012),Liquid,0.3994,ethanol,,,CC[NH+]1CCNCC1.CCC(=O)[O-],N-ethylpiperazinium propionate,AAkKSn,CCO,ethanol,AAIsrh,CC[NH+]1CCNCC1,CCC(=O)[O-],2,0.6006,,,873,False,CC[NH+]1CCNCC1.CCC(=O)[O-],No changes
TvZFe,313.15,101.0,913.029,Shao et al. (2012),Liquid,0.3006,ethanol,,,CC[NH+]1CCNCC1.CCC(=O)[O-],N-ethylpiperazinium propionate,AAkKSn,CCO,ethanol,AAIsrh,CC[NH+]1CCNCC1,CCC(=O)[O-],2,0.6994,,,874,False,CC[NH+]1CCNCC1.CCC(=O)[O-],No changes
TvZFe,313.15,101.0,882.818,Shao et al. (2012),Liquid,0.1998999999999999,ethanol,,,CC[NH+]1CCNCC1.CCC(=O)[O-],N-ethylpiperazinium propionate,AAkKSn,CCO,ethanol,AAIsrh,CC[NH+]1CCNCC1,CCC(=O)[O-],2,0.8001,,,875,False,CC[NH+]1CCNCC1.CCC(=O)[O-],No changes
TvZFe,313.15,101.0,839.7,Shao et al. (2012),Liquid,0.1001999999999999,ethanol,,,CC[NH+]1CCNCC1.CCC(=O)[O-],N-ethylpiperazinium propionate,AAkKSn,CCO,ethanol,AAIsrh,CC[NH+]1CCNCC1,CCC(=O)[O-],2,0.8998,,,876,False,CC[NH+]1CCNCC1.CCC(=O)[O-],No changes
TvZFe,313.15,101.0,772.5,Shao et al. (2012),Liquid,0.0,ethanol,,,CC[NH+]1CCNCC1.CCC(=O)[O-],N-ethylpiperazinium propionate,AAkKSn,CCO,ethanol,AAIsrh,CC[NH+]1CCNCC1,CCC(=O)[O-],2,1.0,,,877,False,CC[NH+]1CCNCC1.CCC(=O)[O-],No changes
wTrYq,298.15,101.0,980.3,Domanska et al. (2008d),Liquid,0.18,1-butyl-3-methylimidazolium methyl sulfate,,,CCCC[n+]1ccn(C)c1.COS(=O)(=O)[O-],1-butyl-3-methylimidazolium methyl sulfate,AAwHNg,CCO,ethanol,AAIsrh,CCCC[n+]1ccn(C)c1,COS(=O)(=O)[O-],2,,,,878,False,CCCC[n+]1ccn(C)c1.COS(=O)(=O)[O-],No changes
wTrYq,298.15,101.0,1060.3,Domanska et al. (2008d),Liquid,0.3173,1-butyl-3-methylimidazolium methyl sulfate,,,CCCC[n+]1ccn(C)c1.COS(=O)(=O)[O-],1-butyl-3-methylimidazolium methyl sulfate,AAwHNg,CCO,ethanol,AAIsrh,CCCC[n+]1ccn(C)c1,COS(=O)(=O)[O-],2,,,,879,False,CCCC[n+]1ccn(C)c1.COS(=O)(=O)[O-],No changes
wTrYq,298.15,101.0,1109.9,Domanska et al. (2008d),Liquid,0.4479,1-butyl-3-methylimidazolium methyl sulfate,,,CCCC[n+]1ccn(C)c1.COS(=O)(=O)[O-],1-butyl-3-methylimidazolium methyl sulfate,AAwHNg,CCO,ethanol,AAIsrh,CCCC[n+]1ccn(C)c1,COS(=O)(=O)[O-],2,,,,880,False,CCCC[n+]1ccn(C)c1.COS(=O)(=O)[O-],No changes
wTrYq,298.15,101.0,1132.9,Domanska et al. (2008d),Liquid,0.5295,1-butyl-3-methylimidazolium methyl sulfate,,,CCCC[n+]1ccn(C)c1.COS(=O)(=O)[O-],1-butyl-3-methylimidazolium methyl sulfate,AAwHNg,CCO,ethanol,AAIsrh,CCCC[n+]1ccn(C)c1,COS(=O)(=O)[O-],2,,,,881,False,CCCC[n+]1ccn(C)c1.COS(=O)(=O)[O-],No changes
wTrYq,298.15,101.0,1164.5,Domanska et al. (2008d),Liquid,0.6705,1-butyl-3-methylimidazolium methyl sulfate,,,CCCC[n+]1ccn(C)c1.COS(=O)(=O)[O-],1-butyl-3-methylimidazolium methyl sulfate,AAwHNg,CCO,ethanol,AAIsrh,CCCC[n+]1ccn(C)c1,COS(=O)(=O)[O-],2,,,,882,False,CCCC[n+]1ccn(C)c1.COS(=O)(=O)[O-],No changes
wTrYq,298.15,101.0,1183.8,Domanska et al. (2008d),Liquid,0.7758,1-butyl-3-methylimidazolium methyl sulfate,,,CCCC[n+]1ccn(C)c1.COS(=O)(=O)[O-],1-butyl-3-methylimidazolium methyl sulfate,AAwHNg,CCO,ethanol,AAIsrh,CCCC[n+]1ccn(C)c1,COS(=O)(=O)[O-],2,,,,883,False,CCCC[n+]1ccn(C)c1.COS(=O)(=O)[O-],No changes
wTrYq,298.15,101.0,1212.0,Domanska et al. (2008d),Liquid,1.0,1-butyl-3-methylimidazolium methyl sulfate,,,CCCC[n+]1ccn(C)c1.COS(=O)(=O)[O-],1-butyl-3-methylimidazolium methyl sulfate,AAwHNg,CCO,ethanol,AAIsrh,CCCC[n+]1ccn(C)c1,COS(=O)(=O)[O-],2,,,,884,False,CCCC[n+]1ccn(C)c1.COS(=O)(=O)[O-],No changes
mpOuS,298.15,100.0,785.6,Hauk et al. (2021),Liquid,0.0,1-ethyl-3-methylimidazolium thiocyanate,,,CC[n+]1ccn(C)c1.N#C[S-],1-ethyl-3-methylimidazolium thiocyanate,AAgcST,CCO,ethanol,AAIsrh,CC[n+]1ccn(C)c1,N#C[S-],2,,,,885,False,CC[n+]1ccn(C)c1.N#C[S-],No changes
mpOuS,298.15,100.0,832.7,Hauk et al. (2021),Liquid,0.0504,1-ethyl-3-methylimidazolium thiocyanate,,,CC[n+]1ccn(C)c1.N#C[S-],1-ethyl-3-methylimidazolium thiocyanate,AAgcST,CCO,ethanol,AAIsrh,CC[n+]1ccn(C)c1,N#C[S-],2,,,,886,False,CC[n+]1ccn(C)c1.N#C[S-],No changes
mpOuS,298.15,100.0,870.3,Hauk et al. (2021),Liquid,0.1005,1-ethyl-3-methylimidazolium thiocyanate,,,CC[n+]1ccn(C)c1.N#C[S-],1-ethyl-3-methylimidazolium thiocyanate,AAgcST,CCO,ethanol,AAIsrh,CC[n+]1ccn(C)c1,N#C[S-],2,,,,887,False,CC[n+]1ccn(C)c1.N#C[S-],No changes
mpOuS,298.15,100.0,930.1,Hauk et al. (2021),Liquid,0.2011,1-ethyl-3-methylimidazolium thiocyanate,,,CC[n+]1ccn(C)c1.N#C[S-],1-ethyl-3-methylimidazolium thiocyanate,AAgcST,CCO,ethanol,AAIsrh,CC[n+]1ccn(C)c1,N#C[S-],2,,,,888,False,CC[n+]1ccn(C)c1.N#C[S-],No changes
mpOuS,298.15,100.0,973.5,Hauk et al. (2021),Liquid,0.2995,1-ethyl-3-methylimidazolium thiocyanate,,,CC[n+]1ccn(C)c1.N#C[S-],1-ethyl-3-methylimidazolium thiocyanate,AAgcST,CCO,ethanol,AAIsrh,CC[n+]1ccn(C)c1,N#C[S-],2,,,,889,False,CC[n+]1ccn(C)c1.N#C[S-],No changes
mpOuS,298.15,100.0,1007.7,Hauk et al. (2021),Liquid,0.3991,1-ethyl-3-methylimidazolium thiocyanate,,,CC[n+]1ccn(C)c1.N#C[S-],1-ethyl-3-methylimidazolium thiocyanate,AAgcST,CCO,ethanol,AAIsrh,CC[n+]1ccn(C)c1,N#C[S-],2,,,,890,False,CC[n+]1ccn(C)c1.N#C[S-],No changes
mpOuS,298.15,100.0,1034.4,Hauk et al. (2021),Liquid,0.4984,1-ethyl-3-methylimidazolium thiocyanate,,,CC[n+]1ccn(C)c1.N#C[S-],1-ethyl-3-methylimidazolium thiocyanate,AAgcST,CCO,ethanol,AAIsrh,CC[n+]1ccn(C)c1,N#C[S-],2,,,,891,False,CC[n+]1ccn(C)c1.N#C[S-],No changes
mpOuS,298.15,100.0,1056.6,Hauk et al. (2021),Liquid,0.5989,1-ethyl-3-methylimidazolium thiocyanate,,,CC[n+]1ccn(C)c1.N#C[S-],1-ethyl-3-methylimidazolium thiocyanate,AAgcST,CCO,ethanol,AAIsrh,CC[n+]1ccn(C)c1,N#C[S-],2,,,,892,False,CC[n+]1ccn(C)c1.N#C[S-],No changes
mpOuS,298.15,100.0,1074.8,Hauk et al. (2021),Liquid,0.699,1-ethyl-3-methylimidazolium thiocyanate,,,CC[n+]1ccn(C)c1.N#C[S-],1-ethyl-3-methylimidazolium thiocyanate,AAgcST,CCO,ethanol,AAIsrh,CC[n+]1ccn(C)c1,N#C[S-],2,,,,893,False,CC[n+]1ccn(C)c1.N#C[S-],No changes
mpOuS,298.15,100.0,1089.7,Hauk et al. (2021),Liquid,0.7966,1-ethyl-3-methylimidazolium thiocyanate,,,CC[n+]1ccn(C)c1.N#C[S-],1-ethyl-3-methylimidazolium thiocyanate,AAgcST,CCO,ethanol,AAIsrh,CC[n+]1ccn(C)c1,N#C[S-],2,,,,894,False,CC[n+]1ccn(C)c1.N#C[S-],No changes
mpOuS,298.15,100.0,1103.3,Hauk et al. (2021),Liquid,0.8998,1-ethyl-3-methylimidazolium thiocyanate,,,CC[n+]1ccn(C)c1.N#C[S-],1-ethyl-3-methylimidazolium thiocyanate,AAgcST,CCO,ethanol,AAIsrh,CC[n+]1ccn(C)c1,N#C[S-],2,,,,895,False,CC[n+]1ccn(C)c1.N#C[S-],No changes
mpOuS,298.15,100.0,1108.7,Hauk et al. (2021),Liquid,0.949,1-ethyl-3-methylimidazolium thiocyanate,,,CC[n+]1ccn(C)c1.N#C[S-],1-ethyl-3-methylimidazolium thiocyanate,AAgcST,CCO,ethanol,AAIsrh,CC[n+]1ccn(C)c1,N#C[S-],2,,,,896,False,CC[n+]1ccn(C)c1.N#C[S-],No changes
mpOuS,298.15,100.0,1114.0,Hauk et al. (2021),Liquid,1.0,1-ethyl-3-methylimidazolium thiocyanate,,,CC[n+]1ccn(C)c1.N#C[S-],1-ethyl-3-methylimidazolium thiocyanate,AAgcST,CCO,ethanol,AAIsrh,CC[n+]1ccn(C)c1,N#C[S-],2,,,,897,False,CC[n+]1ccn(C)c1.N#C[S-],No changes
mpOuS,303.15,100.0,781.3,Hauk et al. (2021),Liquid,0.0,1-ethyl-3-methylimidazolium thiocyanate,,,CC[n+]1ccn(C)c1.N#C[S-],1-ethyl-3-methylimidazolium thiocyanate,AAgcST,CCO,ethanol,AAIsrh,CC[n+]1ccn(C)c1,N#C[S-],2,,,,898,False,CC[n+]1ccn(C)c1.N#C[S-],No changes
mpOuS,303.15,100.0,828.5,Hauk et al. (2021),Liquid,0.0504,1-ethyl-3-methylimidazolium thiocyanate,,,CC[n+]1ccn(C)c1.N#C[S-],1-ethyl-3-methylimidazolium thiocyanate,AAgcST,CCO,ethanol,AAIsrh,CC[n+]1ccn(C)c1,N#C[S-],2,,,,899,False,CC[n+]1ccn(C)c1.N#C[S-],No changes
mpOuS,303.15,100.0,866.4,Hauk et al. (2021),Liquid,0.1005,1-ethyl-3-methylimidazolium thiocyanate,,,CC[n+]1ccn(C)c1.N#C[S-],1-ethyl-3-methylimidazolium thiocyanate,AAgcST,CCO,ethanol,AAIsrh,CC[n+]1ccn(C)c1,N#C[S-],2,,,,900,False,CC[n+]1ccn(C)c1.N#C[S-],No changes
mpOuS,303.15,100.0,926.3,Hauk et al. (2021),Liquid,0.2011,1-ethyl-3-methylimidazolium thiocyanate,,,CC[n+]1ccn(C)c1.N#C[S-],1-ethyl-3-methylimidazolium thiocyanate,AAgcST,CCO,ethanol,AAIsrh,CC[n+]1ccn(C)c1,N#C[S-],2,,,,901,False,CC[n+]1ccn(C)c1.N#C[S-],No changes
mpOuS,303.15,100.0,969.8,Hauk et al. (2021),Liquid,0.2995,1-ethyl-3-methylimidazolium thiocyanate,,,CC[n+]1ccn(C)c1.N#C[S-],1-ethyl-3-methylimidazolium thiocyanate,AAgcST,CCO,ethanol,AAIsrh,CC[n+]1ccn(C)c1,N#C[S-],2,,,,902,False,CC[n+]1ccn(C)c1.N#C[S-],No changes
mpOuS,303.15,100.0,1004.1,Hauk et al. (2021),Liquid,0.3991,1-ethyl-3-methylimidazolium thiocyanate,,,CC[n+]1ccn(C)c1.N#C[S-],1-ethyl-3-methylimidazolium thiocyanate,AAgcST,CCO,ethanol,AAIsrh,CC[n+]1ccn(C)c1,N#C[S-],2,,,,903,False,CC[n+]1ccn(C)c1.N#C[S-],No changes
mpOuS,303.15,100.0,1031.1,Hauk et al. (2021),Liquid,0.4984,1-ethyl-3-methylimidazolium thiocyanate,,,CC[n+]1ccn(C)c1.N#C[S-],1-ethyl-3-methylimidazolium thiocyanate,AAgcST,CCO,ethanol,AAIsrh,CC[n+]1ccn(C)c1,N#C[S-],2,,,,904,False,CC[n+]1ccn(C)c1.N#C[S-],No changes
mpOuS,303.15,100.0,1053.3,Hauk et al. (2021),Liquid,0.5989,1-ethyl-3-methylimidazolium thiocyanate,,,CC[n+]1ccn(C)c1.N#C[S-],1-ethyl-3-methylimidazolium thiocyanate,AAgcST,CCO,ethanol,AAIsrh,CC[n+]1ccn(C)c1,N#C[S-],2,,,,905,False,CC[n+]1ccn(C)c1.N#C[S-],No changes
mpOuS,303.15,100.0,1071.4,Hauk et al. (2021),Liquid,0.699,1-ethyl-3-methylimidazolium thiocyanate,,,CC[n+]1ccn(C)c1.N#C[S-],1-ethyl-3-methylimidazolium thiocyanate,AAgcST,CCO,ethanol,AAIsrh,CC[n+]1ccn(C)c1,N#C[S-],2,,,,906,False,CC[n+]1ccn(C)c1.N#C[S-],No changes
mpOuS,303.15,100.0,1086.5,Hauk et al. (2021),Liquid,0.7966,1-ethyl-3-methylimidazolium thiocyanate,,,CC[n+]1ccn(C)c1.N#C[S-],1-ethyl-3-methylimidazolium thiocyanate,AAgcST,CCO,ethanol,AAIsrh,CC[n+]1ccn(C)c1,N#C[S-],2,,,,907,False,CC[n+]1ccn(C)c1.N#C[S-],No changes
mpOuS,303.15,100.0,1100.0,Hauk et al. (2021),Liquid,0.8998,1-ethyl-3-methylimidazolium thiocyanate,,,CC[n+]1ccn(C)c1.N#C[S-],1-ethyl-3-methylimidazolium thiocyanate,AAgcST,CCO,ethanol,AAIsrh,CC[n+]1ccn(C)c1,N#C[S-],2,,,,908,False,CC[n+]1ccn(C)c1.N#C[S-],No changes
mpOuS,303.15,100.0,1105.4,Hauk et al. (2021),Liquid,0.949,1-ethyl-3-methylimidazolium thiocyanate,,,CC[n+]1ccn(C)c1.N#C[S-],1-ethyl-3-methylimidazolium thiocyanate,AAgcST,CCO,ethanol,AAIsrh,CC[n+]1ccn(C)c1,N#C[S-],2,,,,909,False,CC[n+]1ccn(C)c1.N#C[S-],No changes
mpOuS,303.15,100.0,1110.7,Hauk et al. (2021),Liquid,1.0,1-ethyl-3-methylimidazolium thiocyanate,,,CC[n+]1ccn(C)c1.N#C[S-],1-ethyl-3-methylimidazolium thiocyanate,AAgcST,CCO,ethanol,AAIsrh,CC[n+]1ccn(C)c1,N#C[S-],2,,,,910,False,CC[n+]1ccn(C)c1.N#C[S-],No changes
mpOuS,308.15,100.0,776.9,Hauk et al. (2021),Liquid,0.0,1-ethyl-3-methylimidazolium thiocyanate,,,CC[n+]1ccn(C)c1.N#C[S-],1-ethyl-3-methylimidazolium thiocyanate,AAgcST,CCO,ethanol,AAIsrh,CC[n+]1ccn(C)c1,N#C[S-],2,,,,911,False,CC[n+]1ccn(C)c1.N#C[S-],No changes
mpOuS,308.15,100.0,824.2,Hauk et al. (2021),Liquid,0.0504,1-ethyl-3-methylimidazolium thiocyanate,,,CC[n+]1ccn(C)c1.N#C[S-],1-ethyl-3-methylimidazolium thiocyanate,AAgcST,CCO,ethanol,AAIsrh,CC[n+]1ccn(C)c1,N#C[S-],2,,,,912,False,CC[n+]1ccn(C)c1.N#C[S-],No changes
mpOuS,308.15,100.0,862.4,Hauk et al. (2021),Liquid,0.1005,1-ethyl-3-methylimidazolium thiocyanate,,,CC[n+]1ccn(C)c1.N#C[S-],1-ethyl-3-methylimidazolium thiocyanate,AAgcST,CCO,ethanol,AAIsrh,CC[n+]1ccn(C)c1,N#C[S-],2,,,,913,False,CC[n+]1ccn(C)c1.N#C[S-],No changes
mpOuS,308.15,100.0,922.5,Hauk et al. (2021),Liquid,0.2011,1-ethyl-3-methylimidazolium thiocyanate,,,CC[n+]1ccn(C)c1.N#C[S-],1-ethyl-3-methylimidazolium thiocyanate,AAgcST,CCO,ethanol,AAIsrh,CC[n+]1ccn(C)c1,N#C[S-],2,,,,914,False,CC[n+]1ccn(C)c1.N#C[S-],No changes
mpOuS,308.15,100.0,966.1,Hauk et al. (2021),Liquid,0.2995,1-ethyl-3-methylimidazolium thiocyanate,,,CC[n+]1ccn(C)c1.N#C[S-],1-ethyl-3-methylimidazolium thiocyanate,AAgcST,CCO,ethanol,AAIsrh,CC[n+]1ccn(C)c1,N#C[S-],2,,,,915,False,CC[n+]1ccn(C)c1.N#C[S-],No changes
mpOuS,308.15,100.0,1000.7,Hauk et al. (2021),Liquid,0.3991,1-ethyl-3-methylimidazolium thiocyanate,,,CC[n+]1ccn(C)c1.N#C[S-],1-ethyl-3-methylimidazolium thiocyanate,AAgcST,CCO,ethanol,AAIsrh,CC[n+]1ccn(C)c1,N#C[S-],2,,,,916,False,CC[n+]1ccn(C)c1.N#C[S-],No changes
mpOuS,308.15,100.0,1027.7,Hauk et al. (2021),Liquid,0.4984,1-ethyl-3-methylimidazolium thiocyanate,,,CC[n+]1ccn(C)c1.N#C[S-],1-ethyl-3-methylimidazolium thiocyanate,AAgcST,CCO,ethanol,AAIsrh,CC[n+]1ccn(C)c1,N#C[S-],2,,,,917,False,CC[n+]1ccn(C)c1.N#C[S-],No changes
mpOuS,308.15,100.0,1050.0,Hauk et al. (2021),Liquid,0.5989,1-ethyl-3-methylimidazolium thiocyanate,,,CC[n+]1ccn(C)c1.N#C[S-],1-ethyl-3-methylimidazolium thiocyanate,AAgcST,CCO,ethanol,AAIsrh,CC[n+]1ccn(C)c1,N#C[S-],2,,,,918,False,CC[n+]1ccn(C)c1.N#C[S-],No changes
mpOuS,308.15,100.0,1068.4,Hauk et al. (2021),Liquid,0.699,1-ethyl-3-methylimidazolium thiocyanate,,,CC[n+]1ccn(C)c1.N#C[S-],1-ethyl-3-methylimidazolium thiocyanate,AAgcST,CCO,ethanol,AAIsrh,CC[n+]1ccn(C)c1,N#C[S-],2,,,,919,False,CC[n+]1ccn(C)c1.N#C[S-],No changes
mpOuS,308.15,100.0,1083.2,Hauk et al. (2021),Liquid,0.7966,1-ethyl-3-methylimidazolium thiocyanate,,,CC[n+]1ccn(C)c1.N#C[S-],1-ethyl-3-methylimidazolium thiocyanate,AAgcST,CCO,ethanol,AAIsrh,CC[n+]1ccn(C)c1,N#C[S-],2,,,,920,False,CC[n+]1ccn(C)c1.N#C[S-],No changes
mpOuS,308.15,100.0,1096.8,Hauk et al. (2021),Liquid,0.8998,1-ethyl-3-methylimidazolium thiocyanate,,,CC[n+]1ccn(C)c1.N#C[S-],1-ethyl-3-methylimidazolium thiocyanate,AAgcST,CCO,ethanol,AAIsrh,CC[n+]1ccn(C)c1,N#C[S-],2,,,,921,False,CC[n+]1ccn(C)c1.N#C[S-],No changes
mpOuS,308.15,100.0,1102.3,Hauk et al. (2021),Liquid,0.949,1-ethyl-3-methylimidazolium thiocyanate,,,CC[n+]1ccn(C)c1.N#C[S-],1-ethyl-3-methylimidazolium thiocyanate,AAgcST,CCO,ethanol,AAIsrh,CC[n+]1ccn(C)c1,N#C[S-],2,,,,922,False,CC[n+]1ccn(C)c1.N#C[S-],No changes
mpOuS,308.15,100.0,1107.5,Hauk et al. (2021),Liquid,1.0,1-ethyl-3-methylimidazolium thiocyanate,,,CC[n+]1ccn(C)c1.N#C[S-],1-ethyl-3-methylimidazolium thiocyanate,AAgcST,CCO,ethanol,AAIsrh,CC[n+]1ccn(C)c1,N#C[S-],2,,,,923,False,CC[n+]1ccn(C)c1.N#C[S-],No changes
skngH,298.15,101.0,1427.86,Gonzalez and Gonzalez (2014),Liquid,1.0,ethanol,,,CCC[N+]1(C)CCCC1.O=S(=O)([N-]S(=O)(=O)C(F)(F)F)C(F)(F)F,1-methyl-1-propylpyrrolidinium bis[(trifluoromethyl)sulfonyl]imide,ABabds,CCO,ethanol,AAIsrh,CCC[N+]1(C)CCCC1,O=S(=O)([N-]S(=O)(=O)C(F)(F)F)C(F)(F)F,2,0.0,,,924,False,CCC[N+]1(C)CCCC1.O=S(=O)([N-]S(=O)(=O)C(F)(F)F)C(F)(F)F,No changes
skngH,298.15,101.0,1425.68,Gonzalez and Gonzalez (2014),Liquid,0.984,ethanol,,,CCC[N+]1(C)CCCC1.O=S(=O)([N-]S(=O)(=O)C(F)(F)F)C(F)(F)F,1-methyl-1-propylpyrrolidinium bis[(trifluoromethyl)sulfonyl]imide,ABabds,CCO,ethanol,AAIsrh,CCC[N+]1(C)CCCC1,O=S(=O)([N-]S(=O)(=O)C(F)(F)F)C(F)(F)F,2,0.016,,,925,False,CCC[N+]1(C)CCCC1.O=S(=O)([N-]S(=O)(=O)C(F)(F)F)C(F)(F)F,No changes
skngH,298.15,101.0,1418.06,Gonzalez and Gonzalez (2014),Liquid,0.9297,ethanol,,,CCC[N+]1(C)CCCC1.O=S(=O)([N-]S(=O)(=O)C(F)(F)F)C(F)(F)F,1-methyl-1-propylpyrrolidinium bis[(trifluoromethyl)sulfonyl]imide,ABabds,CCO,ethanol,AAIsrh,CCC[N+]1(C)CCCC1,O=S(=O)([N-]S(=O)(=O)C(F)(F)F)C(F)(F)F,2,0.0703,,,926,False,CCC[N+]1(C)CCCC1.O=S(=O)([N-]S(=O)(=O)C(F)(F)F)C(F)(F)F,No changes
skngH,298.15,101.0,1413.89,Gonzalez and Gonzalez (2014),Liquid,0.9014,ethanol,,,CCC[N+]1(C)CCCC1.O=S(=O)([N-]S(=O)(=O)C(F)(F)F)C(F)(F)F,1-methyl-1-propylpyrrolidinium bis[(trifluoromethyl)sulfonyl]imide,ABabds,CCO,ethanol,AAIsrh,CCC[N+]1(C)CCCC1,O=S(=O)([N-]S(=O)(=O)C(F)(F)F)C(F)(F)F,2,0.0986,,,927,False,CCC[N+]1(C)CCCC1.O=S(=O)([N-]S(=O)(=O)C(F)(F)F)C(F)(F)F,No changes
skngH,298.15,101.0,1380.66,Gonzalez and Gonzalez (2014),Liquid,0.7183999999999999,ethanol,,,CCC[N+]1(C)CCCC1.O=S(=O)([N-]S(=O)(=O)C(F)(F)F)C(F)(F)F,1-methyl-1-propylpyrrolidinium bis[(trifluoromethyl)sulfonyl]imide,ABabds,CCO,ethanol,AAIsrh,CCC[N+]1(C)CCCC1,O=S(=O)([N-]S(=O)(=O)C(F)(F)F)C(F)(F)F,2,0.2816,,,928,False,CCC[N+]1(C)CCCC1.O=S(=O)([N-]S(=O)(=O)C(F)(F)F)C(F)(F)F,No changes
skngH,298.15,101.0,1349.44,Gonzalez and Gonzalez (2014),Liquid,0.5918,ethanol,,,CCC[N+]1(C)CCCC1.O=S(=O)([N-]S(=O)(=O)C(F)(F)F)C(F)(F)F,1-methyl-1-propylpyrrolidinium bis[(trifluoromethyl)sulfonyl]imide,ABabds,CCO,ethanol,AAIsrh,CCC[N+]1(C)CCCC1,O=S(=O)([N-]S(=O)(=O)C(F)(F)F)C(F)(F)F,2,0.4082,,,929,False,CCC[N+]1(C)CCCC1.O=S(=O)([N-]S(=O)(=O)C(F)(F)F)C(F)(F)F,No changes
skngH,298.15,101.0,1315.09,Gonzalez and Gonzalez (2014),Liquid,0.4857,ethanol,,,CCC[N+]1(C)CCCC1.O=S(=O)([N-]S(=O)(=O)C(F)(F)F)C(F)(F)F,1-methyl-1-propylpyrrolidinium bis[(trifluoromethyl)sulfonyl]imide,ABabds,CCO,ethanol,AAIsrh,CCC[N+]1(C)CCCC1,O=S(=O)([N-]S(=O)(=O)C(F)(F)F)C(F)(F)F,2,0.5143,,,930,False,CCC[N+]1(C)CCCC1.O=S(=O)([N-]S(=O)(=O)C(F)(F)F)C(F)(F)F,No changes
skngH,298.15,101.0,1275.55,Gonzalez and Gonzalez (2014),Liquid,0.3923,ethanol,,,CCC[N+]1(C)CCCC1.O=S(=O)([N-]S(=O)(=O)C(F)(F)F)C(F)(F)F,1-methyl-1-propylpyrrolidinium bis[(trifluoromethyl)sulfonyl]imide,ABabds,CCO,ethanol,AAIsrh,CCC[N+]1(C)CCCC1,O=S(=O)([N-]S(=O)(=O)C(F)(F)F)C(F)(F)F,2,0.6077,,,931,False,CCC[N+]1(C)CCCC1.O=S(=O)([N-]S(=O)(=O)C(F)(F)F)C(F)(F)F,No changes
skngH,298.15,101.0,1219.23,Gonzalez and Gonzalez (2014),Liquid,0.2941,ethanol,,,CCC[N+]1(C)CCCC1.O=S(=O)([N-]S(=O)(=O)C(F)(F)F)C(F)(F)F,1-methyl-1-propylpyrrolidinium bis[(trifluoromethyl)sulfonyl]imide,ABabds,CCO,ethanol,AAIsrh,CCC[N+]1(C)CCCC1,O=S(=O)([N-]S(=O)(=O)C(F)(F)F)C(F)(F)F,2,0.7059,,,932,False,CCC[N+]1(C)CCCC1.O=S(=O)([N-]S(=O)(=O)C(F)(F)F)C(F)(F)F,No changes
skngH,298.15,101.0,1138.92,Gonzalez and Gonzalez (2014),Liquid,0.1966,ethanol,,,CCC[N+]1(C)CCCC1.O=S(=O)([N-]S(=O)(=O)C(F)(F)F)C(F)(F)F,1-methyl-1-propylpyrrolidinium bis[(trifluoromethyl)sulfonyl]imide,ABabds,CCO,ethanol,AAIsrh,CCC[N+]1(C)CCCC1,O=S(=O)([N-]S(=O)(=O)C(F)(F)F)C(F)(F)F,2,0.8034,,,933,False,CCC[N+]1(C)CCCC1.O=S(=O)([N-]S(=O)(=O)C(F)(F)F)C(F)(F)F,No changes