setid,Temperature (K),Pressure (kPa),Density (kg/m3),reference,phases,Mole fraction,Mole fraction of compound name,Weight fraction,Weight fraction of compound name,IL_SMILES,IL_name,IL_ID,Solvent_SMILES,Solvent_name,Solvent_ID,IL_cation_SMILES,IL_anion_SMILES,IL_component_number,Mole fraction of solvent,IL_MW,Solvent_MW,Record_ID,Contains_Metal,Standardized_IL_SMILES,Changes
vrCAW,298.15,101.0,1105.5,Arce et al. (2006a),Liquid,0.4074,ethanol,,,CC[n+]1ccn(C)c1.CCOS(=O)(=O)[O-],1-ethyl-3-methylimidazolium ethyl sulfate,AAtWDT,CCO,ethanol,AAIsrh,CC[n+]1ccn(C)c1,CCOS(=O)(=O)[O-],2,0.5926,,,2551,False,CC[n+]1ccn(C)c1.CCOS(=O)(=O)[O-],No changes
vrCAW,298.15,101.0,1104.5,Arce et al. (2006a),Liquid,0.4049,ethanol,,,CC[n+]1ccn(C)c1.CCOS(=O)(=O)[O-],1-ethyl-3-methylimidazolium ethyl sulfate,AAtWDT,CCO,ethanol,AAIsrh,CC[n+]1ccn(C)c1,CCOS(=O)(=O)[O-],2,0.5951,,,2552,False,CC[n+]1ccn(C)c1.CCOS(=O)(=O)[O-],No changes
vrCAW,298.15,101.0,1050.5,Arce et al. (2006a),Liquid,0.288,ethanol,,,CC[n+]1ccn(C)c1.CCOS(=O)(=O)[O-],1-ethyl-3-methylimidazolium ethyl sulfate,AAtWDT,CCO,ethanol,AAIsrh,CC[n+]1ccn(C)c1,CCOS(=O)(=O)[O-],2,0.712,,,2553,False,CC[n+]1ccn(C)c1.CCOS(=O)(=O)[O-],No changes
vrCAW,298.15,101.0,1047.66,Arce et al. (2006a),Liquid,0.2825999999999999,ethanol,,,CC[n+]1ccn(C)c1.CCOS(=O)(=O)[O-],1-ethyl-3-methylimidazolium ethyl sulfate,AAtWDT,CCO,ethanol,AAIsrh,CC[n+]1ccn(C)c1,CCOS(=O)(=O)[O-],2,0.7174,,,2554,False,CC[n+]1ccn(C)c1.CCOS(=O)(=O)[O-],No changes
vrCAW,298.15,101.0,1028.42,Arce et al. (2006a),Liquid,0.2491999999999999,ethanol,,,CC[n+]1ccn(C)c1.CCOS(=O)(=O)[O-],1-ethyl-3-methylimidazolium ethyl sulfate,AAtWDT,CCO,ethanol,AAIsrh,CC[n+]1ccn(C)c1,CCOS(=O)(=O)[O-],2,0.7508,,,2555,False,CC[n+]1ccn(C)c1.CCOS(=O)(=O)[O-],No changes
vrCAW,298.15,101.0,1017.99,Arce et al. (2006a),Liquid,0.2324,ethanol,,,CC[n+]1ccn(C)c1.CCOS(=O)(=O)[O-],1-ethyl-3-methylimidazolium ethyl sulfate,AAtWDT,CCO,ethanol,AAIsrh,CC[n+]1ccn(C)c1,CCOS(=O)(=O)[O-],2,0.7676,,,2556,False,CC[n+]1ccn(C)c1.CCOS(=O)(=O)[O-],No changes
vrCAW,298.15,101.0,1005.44,Arce et al. (2006a),Liquid,0.2134,ethanol,,,CC[n+]1ccn(C)c1.CCOS(=O)(=O)[O-],1-ethyl-3-methylimidazolium ethyl sulfate,AAtWDT,CCO,ethanol,AAIsrh,CC[n+]1ccn(C)c1,CCOS(=O)(=O)[O-],2,0.7866,,,2557,False,CC[n+]1ccn(C)c1.CCOS(=O)(=O)[O-],No changes
vrCAW,298.15,101.0,992.0,Arce et al. (2006a),Liquid,0.1939999999999999,ethanol,,,CC[n+]1ccn(C)c1.CCOS(=O)(=O)[O-],1-ethyl-3-methylimidazolium ethyl sulfate,AAtWDT,CCO,ethanol,AAIsrh,CC[n+]1ccn(C)c1,CCOS(=O)(=O)[O-],2,0.806,,,2558,False,CC[n+]1ccn(C)c1.CCOS(=O)(=O)[O-],No changes
vrCAW,298.15,101.0,943.32,Arce et al. (2006a),Liquid,0.1333999999999999,ethanol,,,CC[n+]1ccn(C)c1.CCOS(=O)(=O)[O-],1-ethyl-3-methylimidazolium ethyl sulfate,AAtWDT,CCO,ethanol,AAIsrh,CC[n+]1ccn(C)c1,CCOS(=O)(=O)[O-],2,0.8666,,,2559,False,CC[n+]1ccn(C)c1.CCOS(=O)(=O)[O-],No changes
vrCAW,298.15,101.0,908.92,Arce et al. (2006a),Liquid,0.0974,ethanol,,,CC[n+]1ccn(C)c1.CCOS(=O)(=O)[O-],1-ethyl-3-methylimidazolium ethyl sulfate,AAtWDT,CCO,ethanol,AAIsrh,CC[n+]1ccn(C)c1,CCOS(=O)(=O)[O-],2,0.9026,,,2560,False,CC[n+]1ccn(C)c1.CCOS(=O)(=O)[O-],No changes
vrCAW,298.15,101.0,905.03,Arce et al. (2006a),Liquid,0.0938,ethanol,,,CC[n+]1ccn(C)c1.CCOS(=O)(=O)[O-],1-ethyl-3-methylimidazolium ethyl sulfate,AAtWDT,CCO,ethanol,AAIsrh,CC[n+]1ccn(C)c1,CCOS(=O)(=O)[O-],2,0.9062,,,2561,False,CC[n+]1ccn(C)c1.CCOS(=O)(=O)[O-],No changes
vrCAW,298.15,101.0,854.74,Arce et al. (2006a),Liquid,0.0495999999999999,ethanol,,,CC[n+]1ccn(C)c1.CCOS(=O)(=O)[O-],1-ethyl-3-methylimidazolium ethyl sulfate,AAtWDT,CCO,ethanol,AAIsrh,CC[n+]1ccn(C)c1,CCOS(=O)(=O)[O-],2,0.9504,,,2562,False,CC[n+]1ccn(C)c1.CCOS(=O)(=O)[O-],No changes
vrCAW,298.15,101.0,852.34,Arce et al. (2006a),Liquid,0.0477999999999999,ethanol,,,CC[n+]1ccn(C)c1.CCOS(=O)(=O)[O-],1-ethyl-3-methylimidazolium ethyl sulfate,AAtWDT,CCO,ethanol,AAIsrh,CC[n+]1ccn(C)c1,CCOS(=O)(=O)[O-],2,0.9522,,,2563,False,CC[n+]1ccn(C)c1.CCOS(=O)(=O)[O-],No changes
EwhCX,293.15,101.0,789.9,Zhang et al. (2014d),Liquid,0.0,"1,3-dimethylimidazolium dimethyl phosphate",,,Cn1cc[n+](C)c1.COP(=O)([O-])OC,"1,3-dimethylimidazolium dimethyl phosphate",AAqlaB,CCO,ethanol,AAIsrh,Cn1cc[n+](C)c1,COP(=O)([O-])OC,2,,,,2564,False,Cn1cc[n+](C)c1.COP(=O)([O-])OC,No changes
EwhCX,293.15,101.0,919.1,Zhang et al. (2014d),Liquid,0.1,"1,3-dimethylimidazolium dimethyl phosphate",,,Cn1cc[n+](C)c1.COP(=O)([O-])OC,"1,3-dimethylimidazolium dimethyl phosphate",AAqlaB,CCO,ethanol,AAIsrh,Cn1cc[n+](C)c1,COP(=O)([O-])OC,2,,,,2565,False,Cn1cc[n+](C)c1.COP(=O)([O-])OC,No changes
EwhCX,293.15,101.0,1004.8,Zhang et al. (2014d),Liquid,0.2001,"1,3-dimethylimidazolium dimethyl phosphate",,,Cn1cc[n+](C)c1.COP(=O)([O-])OC,"1,3-dimethylimidazolium dimethyl phosphate",AAqlaB,CCO,ethanol,AAIsrh,Cn1cc[n+](C)c1,COP(=O)([O-])OC,2,,,,2566,False,Cn1cc[n+](C)c1.COP(=O)([O-])OC,No changes
EwhCX,293.15,101.0,1068.2,Zhang et al. (2014d),Liquid,0.3008,"1,3-dimethylimidazolium dimethyl phosphate",,,Cn1cc[n+](C)c1.COP(=O)([O-])OC,"1,3-dimethylimidazolium dimethyl phosphate",AAqlaB,CCO,ethanol,AAIsrh,Cn1cc[n+](C)c1,COP(=O)([O-])OC,2,,,,2567,False,Cn1cc[n+](C)c1.COP(=O)([O-])OC,No changes
EwhCX,293.15,101.0,1115.6,Zhang et al. (2014d),Liquid,0.4,"1,3-dimethylimidazolium dimethyl phosphate",,,Cn1cc[n+](C)c1.COP(=O)([O-])OC,"1,3-dimethylimidazolium dimethyl phosphate",AAqlaB,CCO,ethanol,AAIsrh,Cn1cc[n+](C)c1,COP(=O)([O-])OC,2,,,,2568,False,Cn1cc[n+](C)c1.COP(=O)([O-])OC,No changes
EwhCX,293.15,101.0,1152.1,Zhang et al. (2014d),Liquid,0.4972,"1,3-dimethylimidazolium dimethyl phosphate",,,Cn1cc[n+](C)c1.COP(=O)([O-])OC,"1,3-dimethylimidazolium dimethyl phosphate",AAqlaB,CCO,ethanol,AAIsrh,Cn1cc[n+](C)c1,COP(=O)([O-])OC,2,,,,2569,False,Cn1cc[n+](C)c1.COP(=O)([O-])OC,No changes
EwhCX,293.15,101.0,1181.8,Zhang et al. (2014d),Liquid,0.5926,"1,3-dimethylimidazolium dimethyl phosphate",,,Cn1cc[n+](C)c1.COP(=O)([O-])OC,"1,3-dimethylimidazolium dimethyl phosphate",AAqlaB,CCO,ethanol,AAIsrh,Cn1cc[n+](C)c1,COP(=O)([O-])OC,2,,,,2570,False,Cn1cc[n+](C)c1.COP(=O)([O-])OC,No changes
EwhCX,293.15,101.0,1208.8,Zhang et al. (2014d),Liquid,0.6991,"1,3-dimethylimidazolium dimethyl phosphate",,,Cn1cc[n+](C)c1.COP(=O)([O-])OC,"1,3-dimethylimidazolium dimethyl phosphate",AAqlaB,CCO,ethanol,AAIsrh,Cn1cc[n+](C)c1,COP(=O)([O-])OC,2,,,,2571,False,Cn1cc[n+](C)c1.COP(=O)([O-])OC,No changes
EwhCX,293.15,101.0,1230.0,Zhang et al. (2014d),Liquid,0.7972,"1,3-dimethylimidazolium dimethyl phosphate",,,Cn1cc[n+](C)c1.COP(=O)([O-])OC,"1,3-dimethylimidazolium dimethyl phosphate",AAqlaB,CCO,ethanol,AAIsrh,Cn1cc[n+](C)c1,COP(=O)([O-])OC,2,,,,2572,False,Cn1cc[n+](C)c1.COP(=O)([O-])OC,No changes
EwhCX,293.15,101.0,1249.8,Zhang et al. (2014d),Liquid,0.9001,"1,3-dimethylimidazolium dimethyl phosphate",,,Cn1cc[n+](C)c1.COP(=O)([O-])OC,"1,3-dimethylimidazolium dimethyl phosphate",AAqlaB,CCO,ethanol,AAIsrh,Cn1cc[n+](C)c1,COP(=O)([O-])OC,2,,,,2573,False,Cn1cc[n+](C)c1.COP(=O)([O-])OC,No changes
EwhCX,293.15,101.0,1264.9,Zhang et al. (2014d),Liquid,1.0,"1,3-dimethylimidazolium dimethyl phosphate",,,Cn1cc[n+](C)c1.COP(=O)([O-])OC,"1,3-dimethylimidazolium dimethyl phosphate",AAqlaB,CCO,ethanol,AAIsrh,Cn1cc[n+](C)c1,COP(=O)([O-])OC,2,,,,2574,False,Cn1cc[n+](C)c1.COP(=O)([O-])OC,No changes
EwhCX,298.15,101.0,785.6,Zhang et al. (2014d),Liquid,0.0,"1,3-dimethylimidazolium dimethyl phosphate",,,Cn1cc[n+](C)c1.COP(=O)([O-])OC,"1,3-dimethylimidazolium dimethyl phosphate",AAqlaB,CCO,ethanol,AAIsrh,Cn1cc[n+](C)c1,COP(=O)([O-])OC,2,,,,2575,False,Cn1cc[n+](C)c1.COP(=O)([O-])OC,No changes
EwhCX,298.15,101.0,915.2,Zhang et al. (2014d),Liquid,0.1,"1,3-dimethylimidazolium dimethyl phosphate",,,Cn1cc[n+](C)c1.COP(=O)([O-])OC,"1,3-dimethylimidazolium dimethyl phosphate",AAqlaB,CCO,ethanol,AAIsrh,Cn1cc[n+](C)c1,COP(=O)([O-])OC,2,,,,2576,False,Cn1cc[n+](C)c1.COP(=O)([O-])OC,No changes
EwhCX,298.15,101.0,1001.0,Zhang et al. (2014d),Liquid,0.2001,"1,3-dimethylimidazolium dimethyl phosphate",,,Cn1cc[n+](C)c1.COP(=O)([O-])OC,"1,3-dimethylimidazolium dimethyl phosphate",AAqlaB,CCO,ethanol,AAIsrh,Cn1cc[n+](C)c1,COP(=O)([O-])OC,2,,,,2577,False,Cn1cc[n+](C)c1.COP(=O)([O-])OC,No changes
EwhCX,298.15,101.0,1064.5,Zhang et al. (2014d),Liquid,0.3008,"1,3-dimethylimidazolium dimethyl phosphate",,,Cn1cc[n+](C)c1.COP(=O)([O-])OC,"1,3-dimethylimidazolium dimethyl phosphate",AAqlaB,CCO,ethanol,AAIsrh,Cn1cc[n+](C)c1,COP(=O)([O-])OC,2,,,,2578,False,Cn1cc[n+](C)c1.COP(=O)([O-])OC,No changes
EwhCX,298.15,101.0,1111.9,Zhang et al. (2014d),Liquid,0.4,"1,3-dimethylimidazolium dimethyl phosphate",,,Cn1cc[n+](C)c1.COP(=O)([O-])OC,"1,3-dimethylimidazolium dimethyl phosphate",AAqlaB,CCO,ethanol,AAIsrh,Cn1cc[n+](C)c1,COP(=O)([O-])OC,2,,,,2579,False,Cn1cc[n+](C)c1.COP(=O)([O-])OC,No changes
EwhCX,298.15,101.0,1148.5,Zhang et al. (2014d),Liquid,0.4972,"1,3-dimethylimidazolium dimethyl phosphate",,,Cn1cc[n+](C)c1.COP(=O)([O-])OC,"1,3-dimethylimidazolium dimethyl phosphate",AAqlaB,CCO,ethanol,AAIsrh,Cn1cc[n+](C)c1,COP(=O)([O-])OC,2,,,,2580,False,Cn1cc[n+](C)c1.COP(=O)([O-])OC,No changes
EwhCX,298.15,101.0,1178.3,Zhang et al. (2014d),Liquid,0.5926,"1,3-dimethylimidazolium dimethyl phosphate",,,Cn1cc[n+](C)c1.COP(=O)([O-])OC,"1,3-dimethylimidazolium dimethyl phosphate",AAqlaB,CCO,ethanol,AAIsrh,Cn1cc[n+](C)c1,COP(=O)([O-])OC,2,,,,2581,False,Cn1cc[n+](C)c1.COP(=O)([O-])OC,No changes
EwhCX,298.15,101.0,1205.2,Zhang et al. (2014d),Liquid,0.6991,"1,3-dimethylimidazolium dimethyl phosphate",,,Cn1cc[n+](C)c1.COP(=O)([O-])OC,"1,3-dimethylimidazolium dimethyl phosphate",AAqlaB,CCO,ethanol,AAIsrh,Cn1cc[n+](C)c1,COP(=O)([O-])OC,2,,,,2582,False,Cn1cc[n+](C)c1.COP(=O)([O-])OC,No changes
EwhCX,298.15,101.0,1226.6,Zhang et al. (2014d),Liquid,0.7972,"1,3-dimethylimidazolium dimethyl phosphate",,,Cn1cc[n+](C)c1.COP(=O)([O-])OC,"1,3-dimethylimidazolium dimethyl phosphate",AAqlaB,CCO,ethanol,AAIsrh,Cn1cc[n+](C)c1,COP(=O)([O-])OC,2,,,,2583,False,Cn1cc[n+](C)c1.COP(=O)([O-])OC,No changes
EwhCX,298.15,101.0,1246.2,Zhang et al. (2014d),Liquid,0.9001,"1,3-dimethylimidazolium dimethyl phosphate",,,Cn1cc[n+](C)c1.COP(=O)([O-])OC,"1,3-dimethylimidazolium dimethyl phosphate",AAqlaB,CCO,ethanol,AAIsrh,Cn1cc[n+](C)c1,COP(=O)([O-])OC,2,,,,2584,False,Cn1cc[n+](C)c1.COP(=O)([O-])OC,No changes
EwhCX,298.15,101.0,1261.3,Zhang et al. (2014d),Liquid,1.0,"1,3-dimethylimidazolium dimethyl phosphate",,,Cn1cc[n+](C)c1.COP(=O)([O-])OC,"1,3-dimethylimidazolium dimethyl phosphate",AAqlaB,CCO,ethanol,AAIsrh,Cn1cc[n+](C)c1,COP(=O)([O-])OC,2,,,,2585,False,Cn1cc[n+](C)c1.COP(=O)([O-])OC,No changes
EwhCX,303.15,101.0,782.2,Zhang et al. (2014d),Liquid,0.0,"1,3-dimethylimidazolium dimethyl phosphate",,,Cn1cc[n+](C)c1.COP(=O)([O-])OC,"1,3-dimethylimidazolium dimethyl phosphate",AAqlaB,CCO,ethanol,AAIsrh,Cn1cc[n+](C)c1,COP(=O)([O-])OC,2,,,,2586,False,Cn1cc[n+](C)c1.COP(=O)([O-])OC,No changes
EwhCX,303.15,101.0,911.1,Zhang et al. (2014d),Liquid,0.1,"1,3-dimethylimidazolium dimethyl phosphate",,,Cn1cc[n+](C)c1.COP(=O)([O-])OC,"1,3-dimethylimidazolium dimethyl phosphate",AAqlaB,CCO,ethanol,AAIsrh,Cn1cc[n+](C)c1,COP(=O)([O-])OC,2,,,,2587,False,Cn1cc[n+](C)c1.COP(=O)([O-])OC,No changes
EwhCX,303.15,101.0,997.4,Zhang et al. (2014d),Liquid,0.2001,"1,3-dimethylimidazolium dimethyl phosphate",,,Cn1cc[n+](C)c1.COP(=O)([O-])OC,"1,3-dimethylimidazolium dimethyl phosphate",AAqlaB,CCO,ethanol,AAIsrh,Cn1cc[n+](C)c1,COP(=O)([O-])OC,2,,,,2588,False,Cn1cc[n+](C)c1.COP(=O)([O-])OC,No changes
EwhCX,303.15,101.0,1060.8,Zhang et al. (2014d),Liquid,0.3008,"1,3-dimethylimidazolium dimethyl phosphate",,,Cn1cc[n+](C)c1.COP(=O)([O-])OC,"1,3-dimethylimidazolium dimethyl phosphate",AAqlaB,CCO,ethanol,AAIsrh,Cn1cc[n+](C)c1,COP(=O)([O-])OC,2,,,,2589,False,Cn1cc[n+](C)c1.COP(=O)([O-])OC,No changes
EwhCX,303.15,101.0,1108.3,Zhang et al. (2014d),Liquid,0.4,"1,3-dimethylimidazolium dimethyl phosphate",,,Cn1cc[n+](C)c1.COP(=O)([O-])OC,"1,3-dimethylimidazolium dimethyl phosphate",AAqlaB,CCO,ethanol,AAIsrh,Cn1cc[n+](C)c1,COP(=O)([O-])OC,2,,,,2590,False,Cn1cc[n+](C)c1.COP(=O)([O-])OC,No changes
EwhCX,303.15,101.0,1144.8,Zhang et al. (2014d),Liquid,0.4972,"1,3-dimethylimidazolium dimethyl phosphate",,,Cn1cc[n+](C)c1.COP(=O)([O-])OC,"1,3-dimethylimidazolium dimethyl phosphate",AAqlaB,CCO,ethanol,AAIsrh,Cn1cc[n+](C)c1,COP(=O)([O-])OC,2,,,,2591,False,Cn1cc[n+](C)c1.COP(=O)([O-])OC,No changes
EwhCX,303.15,101.0,1174.7,Zhang et al. (2014d),Liquid,0.5926,"1,3-dimethylimidazolium dimethyl phosphate",,,Cn1cc[n+](C)c1.COP(=O)([O-])OC,"1,3-dimethylimidazolium dimethyl phosphate",AAqlaB,CCO,ethanol,AAIsrh,Cn1cc[n+](C)c1,COP(=O)([O-])OC,2,,,,2592,False,Cn1cc[n+](C)c1.COP(=O)([O-])OC,No changes
EwhCX,303.15,101.0,1201.7,Zhang et al. (2014d),Liquid,0.6991,"1,3-dimethylimidazolium dimethyl phosphate",,,Cn1cc[n+](C)c1.COP(=O)([O-])OC,"1,3-dimethylimidazolium dimethyl phosphate",AAqlaB,CCO,ethanol,AAIsrh,Cn1cc[n+](C)c1,COP(=O)([O-])OC,2,,,,2593,False,Cn1cc[n+](C)c1.COP(=O)([O-])OC,No changes
EwhCX,303.15,101.0,1223.1,Zhang et al. (2014d),Liquid,0.7972,"1,3-dimethylimidazolium dimethyl phosphate",,,Cn1cc[n+](C)c1.COP(=O)([O-])OC,"1,3-dimethylimidazolium dimethyl phosphate",AAqlaB,CCO,ethanol,AAIsrh,Cn1cc[n+](C)c1,COP(=O)([O-])OC,2,,,,2594,False,Cn1cc[n+](C)c1.COP(=O)([O-])OC,No changes
EwhCX,303.15,101.0,1242.8,Zhang et al. (2014d),Liquid,0.9001,"1,3-dimethylimidazolium dimethyl phosphate",,,Cn1cc[n+](C)c1.COP(=O)([O-])OC,"1,3-dimethylimidazolium dimethyl phosphate",AAqlaB,CCO,ethanol,AAIsrh,Cn1cc[n+](C)c1,COP(=O)([O-])OC,2,,,,2595,False,Cn1cc[n+](C)c1.COP(=O)([O-])OC,No changes
EwhCX,303.15,101.0,1257.8,Zhang et al. (2014d),Liquid,1.0,"1,3-dimethylimidazolium dimethyl phosphate",,,Cn1cc[n+](C)c1.COP(=O)([O-])OC,"1,3-dimethylimidazolium dimethyl phosphate",AAqlaB,CCO,ethanol,AAIsrh,Cn1cc[n+](C)c1,COP(=O)([O-])OC,2,,,,2596,False,Cn1cc[n+](C)c1.COP(=O)([O-])OC,No changes
EwhCX,308.15,101.0,777.8,Zhang et al. (2014d),Liquid,0.0,"1,3-dimethylimidazolium dimethyl phosphate",,,Cn1cc[n+](C)c1.COP(=O)([O-])OC,"1,3-dimethylimidazolium dimethyl phosphate",AAqlaB,CCO,ethanol,AAIsrh,Cn1cc[n+](C)c1,COP(=O)([O-])OC,2,,,,2597,False,Cn1cc[n+](C)c1.COP(=O)([O-])OC,No changes
EwhCX,308.15,101.0,907.1,Zhang et al. (2014d),Liquid,0.1,"1,3-dimethylimidazolium dimethyl phosphate",,,Cn1cc[n+](C)c1.COP(=O)([O-])OC,"1,3-dimethylimidazolium dimethyl phosphate",AAqlaB,CCO,ethanol,AAIsrh,Cn1cc[n+](C)c1,COP(=O)([O-])OC,2,,,,2598,False,Cn1cc[n+](C)c1.COP(=O)([O-])OC,No changes
EwhCX,308.15,101.0,993.3,Zhang et al. (2014d),Liquid,0.2001,"1,3-dimethylimidazolium dimethyl phosphate",,,Cn1cc[n+](C)c1.COP(=O)([O-])OC,"1,3-dimethylimidazolium dimethyl phosphate",AAqlaB,CCO,ethanol,AAIsrh,Cn1cc[n+](C)c1,COP(=O)([O-])OC,2,,,,2599,False,Cn1cc[n+](C)c1.COP(=O)([O-])OC,No changes
EwhCX,308.15,101.0,1057.1,Zhang et al. (2014d),Liquid,0.3008,"1,3-dimethylimidazolium dimethyl phosphate",,,Cn1cc[n+](C)c1.COP(=O)([O-])OC,"1,3-dimethylimidazolium dimethyl phosphate",AAqlaB,CCO,ethanol,AAIsrh,Cn1cc[n+](C)c1,COP(=O)([O-])OC,2,,,,2600,False,Cn1cc[n+](C)c1.COP(=O)([O-])OC,No changes
EwhCX,308.15,101.0,1104.7,Zhang et al. (2014d),Liquid,0.4,"1,3-dimethylimidazolium dimethyl phosphate",,,Cn1cc[n+](C)c1.COP(=O)([O-])OC,"1,3-dimethylimidazolium dimethyl phosphate",AAqlaB,CCO,ethanol,AAIsrh,Cn1cc[n+](C)c1,COP(=O)([O-])OC,2,,,,2601,False,Cn1cc[n+](C)c1.COP(=O)([O-])OC,No changes
EwhCX,308.15,101.0,1141.2,Zhang et al. (2014d),Liquid,0.4972,"1,3-dimethylimidazolium dimethyl phosphate",,,Cn1cc[n+](C)c1.COP(=O)([O-])OC,"1,3-dimethylimidazolium dimethyl phosphate",AAqlaB,CCO,ethanol,AAIsrh,Cn1cc[n+](C)c1,COP(=O)([O-])OC,2,,,,2602,False,Cn1cc[n+](C)c1.COP(=O)([O-])OC,No changes
EwhCX,308.15,101.0,1171.2,Zhang et al. (2014d),Liquid,0.5926,"1,3-dimethylimidazolium dimethyl phosphate",,,Cn1cc[n+](C)c1.COP(=O)([O-])OC,"1,3-dimethylimidazolium dimethyl phosphate",AAqlaB,CCO,ethanol,AAIsrh,Cn1cc[n+](C)c1,COP(=O)([O-])OC,2,,,,2603,False,Cn1cc[n+](C)c1.COP(=O)([O-])OC,No changes
EwhCX,308.15,101.0,1198.2,Zhang et al. (2014d),Liquid,0.6991,"1,3-dimethylimidazolium dimethyl phosphate",,,Cn1cc[n+](C)c1.COP(=O)([O-])OC,"1,3-dimethylimidazolium dimethyl phosphate",AAqlaB,CCO,ethanol,AAIsrh,Cn1cc[n+](C)c1,COP(=O)([O-])OC,2,,,,2604,False,Cn1cc[n+](C)c1.COP(=O)([O-])OC,No changes
EwhCX,308.15,101.0,1219.7,Zhang et al. (2014d),Liquid,0.7972,"1,3-dimethylimidazolium dimethyl phosphate",,,Cn1cc[n+](C)c1.COP(=O)([O-])OC,"1,3-dimethylimidazolium dimethyl phosphate",AAqlaB,CCO,ethanol,AAIsrh,Cn1cc[n+](C)c1,COP(=O)([O-])OC,2,,,,2605,False,Cn1cc[n+](C)c1.COP(=O)([O-])OC,No changes
EwhCX,308.15,101.0,1239.4,Zhang et al. (2014d),Liquid,0.9001,"1,3-dimethylimidazolium dimethyl phosphate",,,Cn1cc[n+](C)c1.COP(=O)([O-])OC,"1,3-dimethylimidazolium dimethyl phosphate",AAqlaB,CCO,ethanol,AAIsrh,Cn1cc[n+](C)c1,COP(=O)([O-])OC,2,,,,2606,False,Cn1cc[n+](C)c1.COP(=O)([O-])OC,No changes
EwhCX,308.15,101.0,1254.4,Zhang et al. (2014d),Liquid,1.0,"1,3-dimethylimidazolium dimethyl phosphate",,,Cn1cc[n+](C)c1.COP(=O)([O-])OC,"1,3-dimethylimidazolium dimethyl phosphate",AAqlaB,CCO,ethanol,AAIsrh,Cn1cc[n+](C)c1,COP(=O)([O-])OC,2,,,,2607,False,Cn1cc[n+](C)c1.COP(=O)([O-])OC,No changes
EwhCX,313.15,101.0,773.4,Zhang et al. (2014d),Liquid,0.0,"1,3-dimethylimidazolium dimethyl phosphate",,,Cn1cc[n+](C)c1.COP(=O)([O-])OC,"1,3-dimethylimidazolium dimethyl phosphate",AAqlaB,CCO,ethanol,AAIsrh,Cn1cc[n+](C)c1,COP(=O)([O-])OC,2,,,,2608,False,Cn1cc[n+](C)c1.COP(=O)([O-])OC,No changes
EwhCX,313.15,101.0,903.1,Zhang et al. (2014d),Liquid,0.1,"1,3-dimethylimidazolium dimethyl phosphate",,,Cn1cc[n+](C)c1.COP(=O)([O-])OC,"1,3-dimethylimidazolium dimethyl phosphate",AAqlaB,CCO,ethanol,AAIsrh,Cn1cc[n+](C)c1,COP(=O)([O-])OC,2,,,,2609,False,Cn1cc[n+](C)c1.COP(=O)([O-])OC,No changes
EwhCX,313.15,101.0,989.5,Zhang et al. (2014d),Liquid,0.2001,"1,3-dimethylimidazolium dimethyl phosphate",,,Cn1cc[n+](C)c1.COP(=O)([O-])OC,"1,3-dimethylimidazolium dimethyl phosphate",AAqlaB,CCO,ethanol,AAIsrh,Cn1cc[n+](C)c1,COP(=O)([O-])OC,2,,,,2610,False,Cn1cc[n+](C)c1.COP(=O)([O-])OC,No changes
EwhCX,313.15,101.0,1053.4,Zhang et al. (2014d),Liquid,0.3008,"1,3-dimethylimidazolium dimethyl phosphate",,,Cn1cc[n+](C)c1.COP(=O)([O-])OC,"1,3-dimethylimidazolium dimethyl phosphate",AAqlaB,CCO,ethanol,AAIsrh,Cn1cc[n+](C)c1,COP(=O)([O-])OC,2,,,,2611,False,Cn1cc[n+](C)c1.COP(=O)([O-])OC,No changes
EwhCX,313.15,101.0,1101.0,Zhang et al. (2014d),Liquid,0.4,"1,3-dimethylimidazolium dimethyl phosphate",,,Cn1cc[n+](C)c1.COP(=O)([O-])OC,"1,3-dimethylimidazolium dimethyl phosphate",AAqlaB,CCO,ethanol,AAIsrh,Cn1cc[n+](C)c1,COP(=O)([O-])OC,2,,,,2612,False,Cn1cc[n+](C)c1.COP(=O)([O-])OC,No changes
EwhCX,313.15,101.0,1137.7,Zhang et al. (2014d),Liquid,0.4972,"1,3-dimethylimidazolium dimethyl phosphate",,,Cn1cc[n+](C)c1.COP(=O)([O-])OC,"1,3-dimethylimidazolium dimethyl phosphate",AAqlaB,CCO,ethanol,AAIsrh,Cn1cc[n+](C)c1,COP(=O)([O-])OC,2,,,,2613,False,Cn1cc[n+](C)c1.COP(=O)([O-])OC,No changes
EwhCX,313.15,101.0,1167.7,Zhang et al. (2014d),Liquid,0.5926,"1,3-dimethylimidazolium dimethyl phosphate",,,Cn1cc[n+](C)c1.COP(=O)([O-])OC,"1,3-dimethylimidazolium dimethyl phosphate",AAqlaB,CCO,ethanol,AAIsrh,Cn1cc[n+](C)c1,COP(=O)([O-])OC,2,,,,2614,False,Cn1cc[n+](C)c1.COP(=O)([O-])OC,No changes
EwhCX,313.15,101.0,1194.7,Zhang et al. (2014d),Liquid,0.6991,"1,3-dimethylimidazolium dimethyl phosphate",,,Cn1cc[n+](C)c1.COP(=O)([O-])OC,"1,3-dimethylimidazolium dimethyl phosphate",AAqlaB,CCO,ethanol,AAIsrh,Cn1cc[n+](C)c1,COP(=O)([O-])OC,2,,,,2615,False,Cn1cc[n+](C)c1.COP(=O)([O-])OC,No changes
EwhCX,313.15,101.0,1216.2,Zhang et al. (2014d),Liquid,0.7972,"1,3-dimethylimidazolium dimethyl phosphate",,,Cn1cc[n+](C)c1.COP(=O)([O-])OC,"1,3-dimethylimidazolium dimethyl phosphate",AAqlaB,CCO,ethanol,AAIsrh,Cn1cc[n+](C)c1,COP(=O)([O-])OC,2,,,,2616,False,Cn1cc[n+](C)c1.COP(=O)([O-])OC,No changes