setid,Temperature (K),Pressure (kPa),Density (kg/m3),reference,phases,Mole fraction,Mole fraction of compound name,Weight fraction,Weight fraction of compound name,IL_SMILES,IL_name,IL_ID,Solvent_SMILES,Solvent_name,Solvent_ID,IL_cation_SMILES,IL_anion_SMILES,IL_component_number,Mole fraction of solvent,IL_MW,Solvent_MW,Record_ID,Contains_Metal,Standardized_IL_SMILES,Changes
mjUzy,308.15,101.0,1180.8,Sarkoohaki et al. (2020),Liquid,0.9327,1-butyl-3-methylimidazolium tetrafluoroborate,,,CCCC[n+]1ccn(C)c1.F[B-](F)(F)F,1-butyl-3-methylimidazolium tetrafluoroborate,AArYBF,CC(C)O,propan-2-ol,AALcwx,CCCC[n+]1ccn(C)c1,F[B-](F)(F)F,2,,,,660,False,CCCC[n+]1ccn(C)c1.F[B-](F)(F)F,No changes
mjUzy,308.15,101.0,1192.0,Sarkoohaki et al. (2020),Liquid,1.0,1-butyl-3-methylimidazolium tetrafluoroborate,,,CCCC[n+]1ccn(C)c1.F[B-](F)(F)F,1-butyl-3-methylimidazolium tetrafluoroborate,AArYBF,CC(C)O,propan-2-ol,AALcwx,CCCC[n+]1ccn(C)c1,F[B-](F)(F)F,2,,,,661,False,CCCC[n+]1ccn(C)c1.F[B-](F)(F)F,No changes
mjUzy,313.15,101.0,768.0,Sarkoohaki et al. (2020),Liquid,0.0,1-butyl-3-methylimidazolium tetrafluoroborate,,,CCCC[n+]1ccn(C)c1.F[B-](F)(F)F,1-butyl-3-methylimidazolium tetrafluoroborate,AArYBF,CC(C)O,propan-2-ol,AALcwx,CCCC[n+]1ccn(C)c1,F[B-](F)(F)F,2,,,,662,False,CCCC[n+]1ccn(C)c1.F[B-](F)(F)F,No changes
mjUzy,313.15,101.0,853.8,Sarkoohaki et al. (2020),Liquid,0.0804,1-butyl-3-methylimidazolium tetrafluoroborate,,,CCCC[n+]1ccn(C)c1.F[B-](F)(F)F,1-butyl-3-methylimidazolium tetrafluoroborate,AArYBF,CC(C)O,propan-2-ol,AALcwx,CCCC[n+]1ccn(C)c1,F[B-](F)(F)F,2,,,,663,False,CCCC[n+]1ccn(C)c1.F[B-](F)(F)F,No changes
mjUzy,313.15,101.0,914.0,Sarkoohaki et al. (2020),Liquid,0.1585,1-butyl-3-methylimidazolium tetrafluoroborate,,,CCCC[n+]1ccn(C)c1.F[B-](F)(F)F,1-butyl-3-methylimidazolium tetrafluoroborate,AArYBF,CC(C)O,propan-2-ol,AALcwx,CCCC[n+]1ccn(C)c1,F[B-](F)(F)F,2,,,,664,False,CCCC[n+]1ccn(C)c1.F[B-](F)(F)F,No changes
mjUzy,313.15,101.0,964.0,Sarkoohaki et al. (2020),Liquid,0.2402,1-butyl-3-methylimidazolium tetrafluoroborate,,,CCCC[n+]1ccn(C)c1.F[B-](F)(F)F,1-butyl-3-methylimidazolium tetrafluoroborate,AArYBF,CC(C)O,propan-2-ol,AALcwx,CCCC[n+]1ccn(C)c1,F[B-](F)(F)F,2,,,,665,False,CCCC[n+]1ccn(C)c1.F[B-](F)(F)F,No changes
mjUzy,313.15,101.0,1017.9,Sarkoohaki et al. (2020),Liquid,0.3505,1-butyl-3-methylimidazolium tetrafluoroborate,,,CCCC[n+]1ccn(C)c1.F[B-](F)(F)F,1-butyl-3-methylimidazolium tetrafluoroborate,AArYBF,CC(C)O,propan-2-ol,AALcwx,CCCC[n+]1ccn(C)c1,F[B-](F)(F)F,2,,,,666,False,CCCC[n+]1ccn(C)c1.F[B-](F)(F)F,No changes
mjUzy,313.15,101.0,1054.3,Sarkoohaki et al. (2020),Liquid,0.4422,1-butyl-3-methylimidazolium tetrafluoroborate,,,CCCC[n+]1ccn(C)c1.F[B-](F)(F)F,1-butyl-3-methylimidazolium tetrafluoroborate,AArYBF,CC(C)O,propan-2-ol,AALcwx,CCCC[n+]1ccn(C)c1,F[B-](F)(F)F,2,,,,667,False,CCCC[n+]1ccn(C)c1.F[B-](F)(F)F,No changes
mjUzy,313.15,101.0,1093.5,Sarkoohaki et al. (2020),Liquid,0.5619,1-butyl-3-methylimidazolium tetrafluoroborate,,,CCCC[n+]1ccn(C)c1.F[B-](F)(F)F,1-butyl-3-methylimidazolium tetrafluoroborate,AArYBF,CC(C)O,propan-2-ol,AALcwx,CCCC[n+]1ccn(C)c1,F[B-](F)(F)F,2,,,,668,False,CCCC[n+]1ccn(C)c1.F[B-](F)(F)F,No changes
mjUzy,313.15,101.0,1117.5,Sarkoohaki et al. (2020),Liquid,0.6491,1-butyl-3-methylimidazolium tetrafluoroborate,,,CCCC[n+]1ccn(C)c1.F[B-](F)(F)F,1-butyl-3-methylimidazolium tetrafluoroborate,AArYBF,CC(C)O,propan-2-ol,AALcwx,CCCC[n+]1ccn(C)c1,F[B-](F)(F)F,2,,,,669,False,CCCC[n+]1ccn(C)c1.F[B-](F)(F)F,No changes
mjUzy,313.15,101.0,1139.5,Sarkoohaki et al. (2020),Liquid,0.7409,1-butyl-3-methylimidazolium tetrafluoroborate,,,CCCC[n+]1ccn(C)c1.F[B-](F)(F)F,1-butyl-3-methylimidazolium tetrafluoroborate,AArYBF,CC(C)O,propan-2-ol,AALcwx,CCCC[n+]1ccn(C)c1,F[B-](F)(F)F,2,,,,670,False,CCCC[n+]1ccn(C)c1.F[B-](F)(F)F,No changes
mjUzy,313.15,101.0,1161.4,Sarkoohaki et al. (2020),Liquid,0.8458,1-butyl-3-methylimidazolium tetrafluoroborate,,,CCCC[n+]1ccn(C)c1.F[B-](F)(F)F,1-butyl-3-methylimidazolium tetrafluoroborate,AArYBF,CC(C)O,propan-2-ol,AALcwx,CCCC[n+]1ccn(C)c1,F[B-](F)(F)F,2,,,,671,False,CCCC[n+]1ccn(C)c1.F[B-](F)(F)F,No changes
mjUzy,313.15,101.0,1177.3,Sarkoohaki et al. (2020),Liquid,0.9327,1-butyl-3-methylimidazolium tetrafluoroborate,,,CCCC[n+]1ccn(C)c1.F[B-](F)(F)F,1-butyl-3-methylimidazolium tetrafluoroborate,AArYBF,CC(C)O,propan-2-ol,AALcwx,CCCC[n+]1ccn(C)c1,F[B-](F)(F)F,2,,,,672,False,CCCC[n+]1ccn(C)c1.F[B-](F)(F)F,No changes
mjUzy,313.15,101.0,1188.5,Sarkoohaki et al. (2020),Liquid,1.0,1-butyl-3-methylimidazolium tetrafluoroborate,,,CCCC[n+]1ccn(C)c1.F[B-](F)(F)F,1-butyl-3-methylimidazolium tetrafluoroborate,AArYBF,CC(C)O,propan-2-ol,AALcwx,CCCC[n+]1ccn(C)c1,F[B-](F)(F)F,2,,,,673,False,CCCC[n+]1ccn(C)c1.F[B-](F)(F)F,No changes
mjUzy,318.15,101.0,763.4,Sarkoohaki et al. (2020),Liquid,0.0,1-butyl-3-methylimidazolium tetrafluoroborate,,,CCCC[n+]1ccn(C)c1.F[B-](F)(F)F,1-butyl-3-methylimidazolium tetrafluoroborate,AArYBF,CC(C)O,propan-2-ol,AALcwx,CCCC[n+]1ccn(C)c1,F[B-](F)(F)F,2,,,,674,False,CCCC[n+]1ccn(C)c1.F[B-](F)(F)F,No changes
mjUzy,318.15,101.0,849.6,Sarkoohaki et al. (2020),Liquid,0.0804,1-butyl-3-methylimidazolium tetrafluoroborate,,,CCCC[n+]1ccn(C)c1.F[B-](F)(F)F,1-butyl-3-methylimidazolium tetrafluoroborate,AArYBF,CC(C)O,propan-2-ol,AALcwx,CCCC[n+]1ccn(C)c1,F[B-](F)(F)F,2,,,,675,False,CCCC[n+]1ccn(C)c1.F[B-](F)(F)F,No changes
mjUzy,318.15,101.0,909.7,Sarkoohaki et al. (2020),Liquid,0.1585,1-butyl-3-methylimidazolium tetrafluoroborate,,,CCCC[n+]1ccn(C)c1.F[B-](F)(F)F,1-butyl-3-methylimidazolium tetrafluoroborate,AArYBF,CC(C)O,propan-2-ol,AALcwx,CCCC[n+]1ccn(C)c1,F[B-](F)(F)F,2,,,,676,False,CCCC[n+]1ccn(C)c1.F[B-](F)(F)F,No changes
mjUzy,318.15,101.0,959.9,Sarkoohaki et al. (2020),Liquid,0.2402,1-butyl-3-methylimidazolium tetrafluoroborate,,,CCCC[n+]1ccn(C)c1.F[B-](F)(F)F,1-butyl-3-methylimidazolium tetrafluoroborate,AArYBF,CC(C)O,propan-2-ol,AALcwx,CCCC[n+]1ccn(C)c1,F[B-](F)(F)F,2,,,,677,False,CCCC[n+]1ccn(C)c1.F[B-](F)(F)F,No changes
mjUzy,318.15,101.0,1014.0,Sarkoohaki et al. (2020),Liquid,0.3505,1-butyl-3-methylimidazolium tetrafluoroborate,,,CCCC[n+]1ccn(C)c1.F[B-](F)(F)F,1-butyl-3-methylimidazolium tetrafluoroborate,AArYBF,CC(C)O,propan-2-ol,AALcwx,CCCC[n+]1ccn(C)c1,F[B-](F)(F)F,2,,,,678,False,CCCC[n+]1ccn(C)c1.F[B-](F)(F)F,No changes
mjUzy,318.15,101.0,1050.5,Sarkoohaki et al. (2020),Liquid,0.4422,1-butyl-3-methylimidazolium tetrafluoroborate,,,CCCC[n+]1ccn(C)c1.F[B-](F)(F)F,1-butyl-3-methylimidazolium tetrafluoroborate,AArYBF,CC(C)O,propan-2-ol,AALcwx,CCCC[n+]1ccn(C)c1,F[B-](F)(F)F,2,,,,679,False,CCCC[n+]1ccn(C)c1.F[B-](F)(F)F,No changes
mjUzy,318.15,101.0,1089.8,Sarkoohaki et al. (2020),Liquid,0.5619,1-butyl-3-methylimidazolium tetrafluoroborate,,,CCCC[n+]1ccn(C)c1.F[B-](F)(F)F,1-butyl-3-methylimidazolium tetrafluoroborate,AArYBF,CC(C)O,propan-2-ol,AALcwx,CCCC[n+]1ccn(C)c1,F[B-](F)(F)F,2,,,,680,False,CCCC[n+]1ccn(C)c1.F[B-](F)(F)F,No changes
mjUzy,318.15,101.0,1113.9,Sarkoohaki et al. (2020),Liquid,0.6491,1-butyl-3-methylimidazolium tetrafluoroborate,,,CCCC[n+]1ccn(C)c1.F[B-](F)(F)F,1-butyl-3-methylimidazolium tetrafluoroborate,AArYBF,CC(C)O,propan-2-ol,AALcwx,CCCC[n+]1ccn(C)c1,F[B-](F)(F)F,2,,,,681,False,CCCC[n+]1ccn(C)c1.F[B-](F)(F)F,No changes
mjUzy,318.15,101.0,1135.9,Sarkoohaki et al. (2020),Liquid,0.7409,1-butyl-3-methylimidazolium tetrafluoroborate,,,CCCC[n+]1ccn(C)c1.F[B-](F)(F)F,1-butyl-3-methylimidazolium tetrafluoroborate,AArYBF,CC(C)O,propan-2-ol,AALcwx,CCCC[n+]1ccn(C)c1,F[B-](F)(F)F,2,,,,682,False,CCCC[n+]1ccn(C)c1.F[B-](F)(F)F,No changes
mjUzy,318.15,101.0,1157.8,Sarkoohaki et al. (2020),Liquid,0.8458,1-butyl-3-methylimidazolium tetrafluoroborate,,,CCCC[n+]1ccn(C)c1.F[B-](F)(F)F,1-butyl-3-methylimidazolium tetrafluoroborate,AArYBF,CC(C)O,propan-2-ol,AALcwx,CCCC[n+]1ccn(C)c1,F[B-](F)(F)F,2,,,,683,False,CCCC[n+]1ccn(C)c1.F[B-](F)(F)F,No changes
mjUzy,318.15,101.0,1173.7,Sarkoohaki et al. (2020),Liquid,0.9327,1-butyl-3-methylimidazolium tetrafluoroborate,,,CCCC[n+]1ccn(C)c1.F[B-](F)(F)F,1-butyl-3-methylimidazolium tetrafluoroborate,AArYBF,CC(C)O,propan-2-ol,AALcwx,CCCC[n+]1ccn(C)c1,F[B-](F)(F)F,2,,,,684,False,CCCC[n+]1ccn(C)c1.F[B-](F)(F)F,No changes
mjUzy,318.15,101.0,1184.9,Sarkoohaki et al. (2020),Liquid,1.0,1-butyl-3-methylimidazolium tetrafluoroborate,,,CCCC[n+]1ccn(C)c1.F[B-](F)(F)F,1-butyl-3-methylimidazolium tetrafluoroborate,AArYBF,CC(C)O,propan-2-ol,AALcwx,CCCC[n+]1ccn(C)c1,F[B-](F)(F)F,2,,,,685,False,CCCC[n+]1ccn(C)c1.F[B-](F)(F)F,No changes
mjUzy,323.15,101.0,758.8,Sarkoohaki et al. (2020),Liquid,0.0,1-butyl-3-methylimidazolium tetrafluoroborate,,,CCCC[n+]1ccn(C)c1.F[B-](F)(F)F,1-butyl-3-methylimidazolium tetrafluoroborate,AArYBF,CC(C)O,propan-2-ol,AALcwx,CCCC[n+]1ccn(C)c1,F[B-](F)(F)F,2,,,,686,False,CCCC[n+]1ccn(C)c1.F[B-](F)(F)F,No changes
mjUzy,323.15,101.0,845.2,Sarkoohaki et al. (2020),Liquid,0.0804,1-butyl-3-methylimidazolium tetrafluoroborate,,,CCCC[n+]1ccn(C)c1.F[B-](F)(F)F,1-butyl-3-methylimidazolium tetrafluoroborate,AArYBF,CC(C)O,propan-2-ol,AALcwx,CCCC[n+]1ccn(C)c1,F[B-](F)(F)F,2,,,,687,False,CCCC[n+]1ccn(C)c1.F[B-](F)(F)F,No changes
mjUzy,323.15,101.0,905.4,Sarkoohaki et al. (2020),Liquid,0.1585,1-butyl-3-methylimidazolium tetrafluoroborate,,,CCCC[n+]1ccn(C)c1.F[B-](F)(F)F,1-butyl-3-methylimidazolium tetrafluoroborate,AArYBF,CC(C)O,propan-2-ol,AALcwx,CCCC[n+]1ccn(C)c1,F[B-](F)(F)F,2,,,,688,False,CCCC[n+]1ccn(C)c1.F[B-](F)(F)F,No changes
mjUzy,323.15,101.0,955.8,Sarkoohaki et al. (2020),Liquid,0.2402,1-butyl-3-methylimidazolium tetrafluoroborate,,,CCCC[n+]1ccn(C)c1.F[B-](F)(F)F,1-butyl-3-methylimidazolium tetrafluoroborate,AArYBF,CC(C)O,propan-2-ol,AALcwx,CCCC[n+]1ccn(C)c1,F[B-](F)(F)F,2,,,,689,False,CCCC[n+]1ccn(C)c1.F[B-](F)(F)F,No changes
mjUzy,323.15,101.0,1010.1,Sarkoohaki et al. (2020),Liquid,0.3505,1-butyl-3-methylimidazolium tetrafluoroborate,,,CCCC[n+]1ccn(C)c1.F[B-](F)(F)F,1-butyl-3-methylimidazolium tetrafluoroborate,AArYBF,CC(C)O,propan-2-ol,AALcwx,CCCC[n+]1ccn(C)c1,F[B-](F)(F)F,2,,,,690,False,CCCC[n+]1ccn(C)c1.F[B-](F)(F)F,No changes
mjUzy,323.15,101.0,1046.7,Sarkoohaki et al. (2020),Liquid,0.4422,1-butyl-3-methylimidazolium tetrafluoroborate,,,CCCC[n+]1ccn(C)c1.F[B-](F)(F)F,1-butyl-3-methylimidazolium tetrafluoroborate,AArYBF,CC(C)O,propan-2-ol,AALcwx,CCCC[n+]1ccn(C)c1,F[B-](F)(F)F,2,,,,691,False,CCCC[n+]1ccn(C)c1.F[B-](F)(F)F,No changes
mjUzy,323.15,101.0,1086.2,Sarkoohaki et al. (2020),Liquid,0.5619,1-butyl-3-methylimidazolium tetrafluoroborate,,,CCCC[n+]1ccn(C)c1.F[B-](F)(F)F,1-butyl-3-methylimidazolium tetrafluoroborate,AArYBF,CC(C)O,propan-2-ol,AALcwx,CCCC[n+]1ccn(C)c1,F[B-](F)(F)F,2,,,,692,False,CCCC[n+]1ccn(C)c1.F[B-](F)(F)F,No changes
mjUzy,323.15,101.0,1110.3,Sarkoohaki et al. (2020),Liquid,0.6491,1-butyl-3-methylimidazolium tetrafluoroborate,,,CCCC[n+]1ccn(C)c1.F[B-](F)(F)F,1-butyl-3-methylimidazolium tetrafluoroborate,AArYBF,CC(C)O,propan-2-ol,AALcwx,CCCC[n+]1ccn(C)c1,F[B-](F)(F)F,2,,,,693,False,CCCC[n+]1ccn(C)c1.F[B-](F)(F)F,No changes
mjUzy,323.15,101.0,1132.5,Sarkoohaki et al. (2020),Liquid,0.7409,1-butyl-3-methylimidazolium tetrafluoroborate,,,CCCC[n+]1ccn(C)c1.F[B-](F)(F)F,1-butyl-3-methylimidazolium tetrafluoroborate,AArYBF,CC(C)O,propan-2-ol,AALcwx,CCCC[n+]1ccn(C)c1,F[B-](F)(F)F,2,,,,694,False,CCCC[n+]1ccn(C)c1.F[B-](F)(F)F,No changes
mjUzy,323.15,101.0,1154.4,Sarkoohaki et al. (2020),Liquid,0.8458,1-butyl-3-methylimidazolium tetrafluoroborate,,,CCCC[n+]1ccn(C)c1.F[B-](F)(F)F,1-butyl-3-methylimidazolium tetrafluoroborate,AArYBF,CC(C)O,propan-2-ol,AALcwx,CCCC[n+]1ccn(C)c1,F[B-](F)(F)F,2,,,,695,False,CCCC[n+]1ccn(C)c1.F[B-](F)(F)F,No changes
mjUzy,323.15,101.0,1170.3,Sarkoohaki et al. (2020),Liquid,0.9327,1-butyl-3-methylimidazolium tetrafluoroborate,,,CCCC[n+]1ccn(C)c1.F[B-](F)(F)F,1-butyl-3-methylimidazolium tetrafluoroborate,AArYBF,CC(C)O,propan-2-ol,AALcwx,CCCC[n+]1ccn(C)c1,F[B-](F)(F)F,2,,,,696,False,CCCC[n+]1ccn(C)c1.F[B-](F)(F)F,No changes
mjUzy,323.15,101.0,1181.4,Sarkoohaki et al. (2020),Liquid,1.0,1-butyl-3-methylimidazolium tetrafluoroborate,,,CCCC[n+]1ccn(C)c1.F[B-](F)(F)F,1-butyl-3-methylimidazolium tetrafluoroborate,AArYBF,CC(C)O,propan-2-ol,AALcwx,CCCC[n+]1ccn(C)c1,F[B-](F)(F)F,2,,,,697,False,CCCC[n+]1ccn(C)c1.F[B-](F)(F)F,No changes
LCbRO,298.15,101.0,876.9,Bahadur et al. (2012),Liquid,0.053,"methyltrioctylammonium 1,1,1-trifluoro-N-[(trifluoromethyl)sulfonyl]methanesulfonamide",,,CCCCCCCC[N+](C)(CCCCCCCC)CCCCCCCC.O=S(=O)([N-]S(=O)(=O)C(F)(F)F)C(F)(F)F,"methyltrioctylammonium 1,1,1-trifluoro-N-[(trifluoromethyl)sulfonyl]methanesulfonamide",ACUobF,CC(C)O,propan-2-ol,AALcwx,CCCCCCCC[N+](C)(CCCCCCCC)CCCCCCCC,O=S(=O)([N-]S(=O)(=O)C(F)(F)F)C(F)(F)F,2,,,,698,False,CCCCCCCC[N+](C)(CCCCCCCC)CCCCCCCC.O=S(=O)([N-]S(=O)(=O)C(F)(F)F)C(F)(F)F,No changes
LCbRO,298.15,101.0,932.6,Bahadur et al. (2012),Liquid,0.1,"methyltrioctylammonium 1,1,1-trifluoro-N-[(trifluoromethyl)sulfonyl]methanesulfonamide",,,CCCCCCCC[N+](C)(CCCCCCCC)CCCCCCCC.O=S(=O)([N-]S(=O)(=O)C(F)(F)F)C(F)(F)F,"methyltrioctylammonium 1,1,1-trifluoro-N-[(trifluoromethyl)sulfonyl]methanesulfonamide",ACUobF,CC(C)O,propan-2-ol,AALcwx,CCCCCCCC[N+](C)(CCCCCCCC)CCCCCCCC,O=S(=O)([N-]S(=O)(=O)C(F)(F)F)C(F)(F)F,2,,,,699,False,CCCCCCCC[N+](C)(CCCCCCCC)CCCCCCCC.O=S(=O)([N-]S(=O)(=O)C(F)(F)F)C(F)(F)F,No changes
LCbRO,298.15,101.0,1004.9,Bahadur et al. (2012),Liquid,0.2045,"methyltrioctylammonium 1,1,1-trifluoro-N-[(trifluoromethyl)sulfonyl]methanesulfonamide",,,CCCCCCCC[N+](C)(CCCCCCCC)CCCCCCCC.O=S(=O)([N-]S(=O)(=O)C(F)(F)F)C(F)(F)F,"methyltrioctylammonium 1,1,1-trifluoro-N-[(trifluoromethyl)sulfonyl]methanesulfonamide",ACUobF,CC(C)O,propan-2-ol,AALcwx,CCCCCCCC[N+](C)(CCCCCCCC)CCCCCCCC,O=S(=O)([N-]S(=O)(=O)C(F)(F)F)C(F)(F)F,2,,,,700,False,CCCCCCCC[N+](C)(CCCCCCCC)CCCCCCCC.O=S(=O)([N-]S(=O)(=O)C(F)(F)F)C(F)(F)F,No changes
LCbRO,298.15,101.0,1033.8,Bahadur et al. (2012),Liquid,0.2841,"methyltrioctylammonium 1,1,1-trifluoro-N-[(trifluoromethyl)sulfonyl]methanesulfonamide",,,CCCCCCCC[N+](C)(CCCCCCCC)CCCCCCCC.O=S(=O)([N-]S(=O)(=O)C(F)(F)F)C(F)(F)F,"methyltrioctylammonium 1,1,1-trifluoro-N-[(trifluoromethyl)sulfonyl]methanesulfonamide",ACUobF,CC(C)O,propan-2-ol,AALcwx,CCCCCCCC[N+](C)(CCCCCCCC)CCCCCCCC,O=S(=O)([N-]S(=O)(=O)C(F)(F)F)C(F)(F)F,2,,,,701,False,CCCCCCCC[N+](C)(CCCCCCCC)CCCCCCCC.O=S(=O)([N-]S(=O)(=O)C(F)(F)F)C(F)(F)F,No changes
LCbRO,298.15,101.0,1056.2,Bahadur et al. (2012),Liquid,0.3934,"methyltrioctylammonium 1,1,1-trifluoro-N-[(trifluoromethyl)sulfonyl]methanesulfonamide",,,CCCCCCCC[N+](C)(CCCCCCCC)CCCCCCCC.O=S(=O)([N-]S(=O)(=O)C(F)(F)F)C(F)(F)F,"methyltrioctylammonium 1,1,1-trifluoro-N-[(trifluoromethyl)sulfonyl]methanesulfonamide",ACUobF,CC(C)O,propan-2-ol,AALcwx,CCCCCCCC[N+](C)(CCCCCCCC)CCCCCCCC,O=S(=O)([N-]S(=O)(=O)C(F)(F)F)C(F)(F)F,2,,,,702,False,CCCCCCCC[N+](C)(CCCCCCCC)CCCCCCCC.O=S(=O)([N-]S(=O)(=O)C(F)(F)F)C(F)(F)F,No changes
LCbRO,298.15,101.0,1067.6,Bahadur et al. (2012),Liquid,0.4824,"methyltrioctylammonium 1,1,1-trifluoro-N-[(trifluoromethyl)sulfonyl]methanesulfonamide",,,CCCCCCCC[N+](C)(CCCCCCCC)CCCCCCCC.O=S(=O)([N-]S(=O)(=O)C(F)(F)F)C(F)(F)F,"methyltrioctylammonium 1,1,1-trifluoro-N-[(trifluoromethyl)sulfonyl]methanesulfonamide",ACUobF,CC(C)O,propan-2-ol,AALcwx,CCCCCCCC[N+](C)(CCCCCCCC)CCCCCCCC,O=S(=O)([N-]S(=O)(=O)C(F)(F)F)C(F)(F)F,2,,,,703,False,CCCCCCCC[N+](C)(CCCCCCCC)CCCCCCCC.O=S(=O)([N-]S(=O)(=O)C(F)(F)F)C(F)(F)F,No changes
LCbRO,298.15,101.0,1078.9,Bahadur et al. (2012),Liquid,0.5896,"methyltrioctylammonium 1,1,1-trifluoro-N-[(trifluoromethyl)sulfonyl]methanesulfonamide",,,CCCCCCCC[N+](C)(CCCCCCCC)CCCCCCCC.O=S(=O)([N-]S(=O)(=O)C(F)(F)F)C(F)(F)F,"methyltrioctylammonium 1,1,1-trifluoro-N-[(trifluoromethyl)sulfonyl]methanesulfonamide",ACUobF,CC(C)O,propan-2-ol,AALcwx,CCCCCCCC[N+](C)(CCCCCCCC)CCCCCCCC,O=S(=O)([N-]S(=O)(=O)C(F)(F)F)C(F)(F)F,2,,,,704,False,CCCCCCCC[N+](C)(CCCCCCCC)CCCCCCCC.O=S(=O)([N-]S(=O)(=O)C(F)(F)F)C(F)(F)F,No changes
LCbRO,298.15,101.0,1089.0,Bahadur et al. (2012),Liquid,0.7066,"methyltrioctylammonium 1,1,1-trifluoro-N-[(trifluoromethyl)sulfonyl]methanesulfonamide",,,CCCCCCCC[N+](C)(CCCCCCCC)CCCCCCCC.O=S(=O)([N-]S(=O)(=O)C(F)(F)F)C(F)(F)F,"methyltrioctylammonium 1,1,1-trifluoro-N-[(trifluoromethyl)sulfonyl]methanesulfonamide",ACUobF,CC(C)O,propan-2-ol,AALcwx,CCCCCCCC[N+](C)(CCCCCCCC)CCCCCCCC,O=S(=O)([N-]S(=O)(=O)C(F)(F)F)C(F)(F)F,2,,,,705,False,CCCCCCCC[N+](C)(CCCCCCCC)CCCCCCCC.O=S(=O)([N-]S(=O)(=O)C(F)(F)F)C(F)(F)F,No changes
LCbRO,298.15,101.0,1095.2,Bahadur et al. (2012),Liquid,0.7967,"methyltrioctylammonium 1,1,1-trifluoro-N-[(trifluoromethyl)sulfonyl]methanesulfonamide",,,CCCCCCCC[N+](C)(CCCCCCCC)CCCCCCCC.O=S(=O)([N-]S(=O)(=O)C(F)(F)F)C(F)(F)F,"methyltrioctylammonium 1,1,1-trifluoro-N-[(trifluoromethyl)sulfonyl]methanesulfonamide",ACUobF,CC(C)O,propan-2-ol,AALcwx,CCCCCCCC[N+](C)(CCCCCCCC)CCCCCCCC,O=S(=O)([N-]S(=O)(=O)C(F)(F)F)C(F)(F)F,2,,,,706,False,CCCCCCCC[N+](C)(CCCCCCCC)CCCCCCCC.O=S(=O)([N-]S(=O)(=O)C(F)(F)F)C(F)(F)F,No changes
LCbRO,298.15,101.0,1100.5,Bahadur et al. (2012),Liquid,0.896,"methyltrioctylammonium 1,1,1-trifluoro-N-[(trifluoromethyl)sulfonyl]methanesulfonamide",,,CCCCCCCC[N+](C)(CCCCCCCC)CCCCCCCC.O=S(=O)([N-]S(=O)(=O)C(F)(F)F)C(F)(F)F,"methyltrioctylammonium 1,1,1-trifluoro-N-[(trifluoromethyl)sulfonyl]methanesulfonamide",ACUobF,CC(C)O,propan-2-ol,AALcwx,CCCCCCCC[N+](C)(CCCCCCCC)CCCCCCCC,O=S(=O)([N-]S(=O)(=O)C(F)(F)F)C(F)(F)F,2,,,,707,False,CCCCCCCC[N+](C)(CCCCCCCC)CCCCCCCC.O=S(=O)([N-]S(=O)(=O)C(F)(F)F)C(F)(F)F,No changes
LCbRO,303.15,101.0,873.0,Bahadur et al. (2012),Liquid,0.053,"methyltrioctylammonium 1,1,1-trifluoro-N-[(trifluoromethyl)sulfonyl]methanesulfonamide",,,CCCCCCCC[N+](C)(CCCCCCCC)CCCCCCCC.O=S(=O)([N-]S(=O)(=O)C(F)(F)F)C(F)(F)F,"methyltrioctylammonium 1,1,1-trifluoro-N-[(trifluoromethyl)sulfonyl]methanesulfonamide",ACUobF,CC(C)O,propan-2-ol,AALcwx,CCCCCCCC[N+](C)(CCCCCCCC)CCCCCCCC,O=S(=O)([N-]S(=O)(=O)C(F)(F)F)C(F)(F)F,2,,,,708,False,CCCCCCCC[N+](C)(CCCCCCCC)CCCCCCCC.O=S(=O)([N-]S(=O)(=O)C(F)(F)F)C(F)(F)F,No changes
LCbRO,303.15,101.0,928.9,Bahadur et al. (2012),Liquid,0.1,"methyltrioctylammonium 1,1,1-trifluoro-N-[(trifluoromethyl)sulfonyl]methanesulfonamide",,,CCCCCCCC[N+](C)(CCCCCCCC)CCCCCCCC.O=S(=O)([N-]S(=O)(=O)C(F)(F)F)C(F)(F)F,"methyltrioctylammonium 1,1,1-trifluoro-N-[(trifluoromethyl)sulfonyl]methanesulfonamide",ACUobF,CC(C)O,propan-2-ol,AALcwx,CCCCCCCC[N+](C)(CCCCCCCC)CCCCCCCC,O=S(=O)([N-]S(=O)(=O)C(F)(F)F)C(F)(F)F,2,,,,709,False,CCCCCCCC[N+](C)(CCCCCCCC)CCCCCCCC.O=S(=O)([N-]S(=O)(=O)C(F)(F)F)C(F)(F)F,No changes
LCbRO,303.15,101.0,1001.5,Bahadur et al. (2012),Liquid,0.2045,"methyltrioctylammonium 1,1,1-trifluoro-N-[(trifluoromethyl)sulfonyl]methanesulfonamide",,,CCCCCCCC[N+](C)(CCCCCCCC)CCCCCCCC.O=S(=O)([N-]S(=O)(=O)C(F)(F)F)C(F)(F)F,"methyltrioctylammonium 1,1,1-trifluoro-N-[(trifluoromethyl)sulfonyl]methanesulfonamide",ACUobF,CC(C)O,propan-2-ol,AALcwx,CCCCCCCC[N+](C)(CCCCCCCC)CCCCCCCC,O=S(=O)([N-]S(=O)(=O)C(F)(F)F)C(F)(F)F,2,,,,710,False,CCCCCCCC[N+](C)(CCCCCCCC)CCCCCCCC.O=S(=O)([N-]S(=O)(=O)C(F)(F)F)C(F)(F)F,No changes
LCbRO,303.15,101.0,1030.3,Bahadur et al. (2012),Liquid,0.2841,"methyltrioctylammonium 1,1,1-trifluoro-N-[(trifluoromethyl)sulfonyl]methanesulfonamide",,,CCCCCCCC[N+](C)(CCCCCCCC)CCCCCCCC.O=S(=O)([N-]S(=O)(=O)C(F)(F)F)C(F)(F)F,"methyltrioctylammonium 1,1,1-trifluoro-N-[(trifluoromethyl)sulfonyl]methanesulfonamide",ACUobF,CC(C)O,propan-2-ol,AALcwx,CCCCCCCC[N+](C)(CCCCCCCC)CCCCCCCC,O=S(=O)([N-]S(=O)(=O)C(F)(F)F)C(F)(F)F,2,,,,711,False,CCCCCCCC[N+](C)(CCCCCCCC)CCCCCCCC.O=S(=O)([N-]S(=O)(=O)C(F)(F)F)C(F)(F)F,No changes
LCbRO,303.15,101.0,1052.6,Bahadur et al. (2012),Liquid,0.3934,"methyltrioctylammonium 1,1,1-trifluoro-N-[(trifluoromethyl)sulfonyl]methanesulfonamide",,,CCCCCCCC[N+](C)(CCCCCCCC)CCCCCCCC.O=S(=O)([N-]S(=O)(=O)C(F)(F)F)C(F)(F)F,"methyltrioctylammonium 1,1,1-trifluoro-N-[(trifluoromethyl)sulfonyl]methanesulfonamide",ACUobF,CC(C)O,propan-2-ol,AALcwx,CCCCCCCC[N+](C)(CCCCCCCC)CCCCCCCC,O=S(=O)([N-]S(=O)(=O)C(F)(F)F)C(F)(F)F,2,,,,712,False,CCCCCCCC[N+](C)(CCCCCCCC)CCCCCCCC.O=S(=O)([N-]S(=O)(=O)C(F)(F)F)C(F)(F)F,No changes