setid,Temperature (K),Pressure (kPa),Density (kg/m3),reference,phases,Mole fraction,Mole fraction of compound name,Weight fraction,Weight fraction of compound name,IL_SMILES,IL_name,IL_ID,Solvent_SMILES,Solvent_name,Solvent_ID,IL_cation_SMILES,IL_anion_SMILES,IL_component_number,Mole fraction of solvent,IL_MW,Solvent_MW,Record_ID,Contains_Metal,Standardized_IL_SMILES,Changes
vRbvi,288.15,101.0,1251.3,Vercher et al. (2018),Liquid,0.9482,1-butyl-1-methylpyrrolidinium trifluoromethanesulfonate,,,CCCC[N+]1(C)CCCC1.O=S(=O)([O-])C(F)(F)F,1-butyl-1-methylpyrrolidinium trifluoromethanesulfonate,ABEBwg,CC(C)O,propan-2-ol,AALcwx,CCCC[N+]1(C)CCCC1,O=S(=O)([O-])C(F)(F)F,2,,,,822,False,CCCC[N+]1(C)CCCC1.O=S(=O)([O-])C(F)(F)F,No changes
vRbvi,288.15,101.0,1259.6,Vercher et al. (2018),Liquid,1.0,1-butyl-1-methylpyrrolidinium trifluoromethanesulfonate,,,CCCC[N+]1(C)CCCC1.O=S(=O)([O-])C(F)(F)F,1-butyl-1-methylpyrrolidinium trifluoromethanesulfonate,ABEBwg,CC(C)O,propan-2-ol,AALcwx,CCCC[N+]1(C)CCCC1,O=S(=O)([O-])C(F)(F)F,2,,,,823,False,CCCC[N+]1(C)CCCC1.O=S(=O)([O-])C(F)(F)F,No changes
vRbvi,298.15,101.0,781.0,Vercher et al. (2018),Liquid,0.0,1-butyl-1-methylpyrrolidinium trifluoromethanesulfonate,,,CCCC[N+]1(C)CCCC1.O=S(=O)([O-])C(F)(F)F,1-butyl-1-methylpyrrolidinium trifluoromethanesulfonate,ABEBwg,CC(C)O,propan-2-ol,AALcwx,CCCC[N+]1(C)CCCC1,O=S(=O)([O-])C(F)(F)F,2,,,,824,False,CCCC[N+]1(C)CCCC1.O=S(=O)([O-])C(F)(F)F,No changes
vRbvi,298.15,101.0,848.8,Vercher et al. (2018),Liquid,0.0506,1-butyl-1-methylpyrrolidinium trifluoromethanesulfonate,,,CCCC[N+]1(C)CCCC1.O=S(=O)([O-])C(F)(F)F,1-butyl-1-methylpyrrolidinium trifluoromethanesulfonate,ABEBwg,CC(C)O,propan-2-ol,AALcwx,CCCC[N+]1(C)CCCC1,O=S(=O)([O-])C(F)(F)F,2,,,,825,False,CCCC[N+]1(C)CCCC1.O=S(=O)([O-])C(F)(F)F,No changes
vRbvi,298.15,101.0,904.8,Vercher et al. (2018),Liquid,0.1019,1-butyl-1-methylpyrrolidinium trifluoromethanesulfonate,,,CCCC[N+]1(C)CCCC1.O=S(=O)([O-])C(F)(F)F,1-butyl-1-methylpyrrolidinium trifluoromethanesulfonate,ABEBwg,CC(C)O,propan-2-ol,AALcwx,CCCC[N+]1(C)CCCC1,O=S(=O)([O-])C(F)(F)F,2,,,,826,False,CCCC[N+]1(C)CCCC1.O=S(=O)([O-])C(F)(F)F,No changes
vRbvi,298.15,101.0,949.1,Vercher et al. (2018),Liquid,0.1505,1-butyl-1-methylpyrrolidinium trifluoromethanesulfonate,,,CCCC[N+]1(C)CCCC1.O=S(=O)([O-])C(F)(F)F,1-butyl-1-methylpyrrolidinium trifluoromethanesulfonate,ABEBwg,CC(C)O,propan-2-ol,AALcwx,CCCC[N+]1(C)CCCC1,O=S(=O)([O-])C(F)(F)F,2,,,,827,False,CCCC[N+]1(C)CCCC1.O=S(=O)([O-])C(F)(F)F,No changes
vRbvi,298.15,101.0,988.0,Vercher et al. (2018),Liquid,0.2002,1-butyl-1-methylpyrrolidinium trifluoromethanesulfonate,,,CCCC[N+]1(C)CCCC1.O=S(=O)([O-])C(F)(F)F,1-butyl-1-methylpyrrolidinium trifluoromethanesulfonate,ABEBwg,CC(C)O,propan-2-ol,AALcwx,CCCC[N+]1(C)CCCC1,O=S(=O)([O-])C(F)(F)F,2,,,,828,False,CCCC[N+]1(C)CCCC1.O=S(=O)([O-])C(F)(F)F,No changes
vRbvi,298.15,101.0,1050.9,Vercher et al. (2018),Liquid,0.3002,1-butyl-1-methylpyrrolidinium trifluoromethanesulfonate,,,CCCC[N+]1(C)CCCC1.O=S(=O)([O-])C(F)(F)F,1-butyl-1-methylpyrrolidinium trifluoromethanesulfonate,ABEBwg,CC(C)O,propan-2-ol,AALcwx,CCCC[N+]1(C)CCCC1,O=S(=O)([O-])C(F)(F)F,2,,,,829,False,CCCC[N+]1(C)CCCC1.O=S(=O)([O-])C(F)(F)F,No changes
vRbvi,298.15,101.0,1099.2,Vercher et al. (2018),Liquid,0.3997,1-butyl-1-methylpyrrolidinium trifluoromethanesulfonate,,,CCCC[N+]1(C)CCCC1.O=S(=O)([O-])C(F)(F)F,1-butyl-1-methylpyrrolidinium trifluoromethanesulfonate,ABEBwg,CC(C)O,propan-2-ol,AALcwx,CCCC[N+]1(C)CCCC1,O=S(=O)([O-])C(F)(F)F,2,,,,830,False,CCCC[N+]1(C)CCCC1.O=S(=O)([O-])C(F)(F)F,No changes
vRbvi,298.15,101.0,1137.7,Vercher et al. (2018),Liquid,0.4996,1-butyl-1-methylpyrrolidinium trifluoromethanesulfonate,,,CCCC[N+]1(C)CCCC1.O=S(=O)([O-])C(F)(F)F,1-butyl-1-methylpyrrolidinium trifluoromethanesulfonate,ABEBwg,CC(C)O,propan-2-ol,AALcwx,CCCC[N+]1(C)CCCC1,O=S(=O)([O-])C(F)(F)F,2,,,,831,False,CCCC[N+]1(C)CCCC1.O=S(=O)([O-])C(F)(F)F,No changes
vRbvi,298.15,101.0,1169.2,Vercher et al. (2018),Liquid,0.6001,1-butyl-1-methylpyrrolidinium trifluoromethanesulfonate,,,CCCC[N+]1(C)CCCC1.O=S(=O)([O-])C(F)(F)F,1-butyl-1-methylpyrrolidinium trifluoromethanesulfonate,ABEBwg,CC(C)O,propan-2-ol,AALcwx,CCCC[N+]1(C)CCCC1,O=S(=O)([O-])C(F)(F)F,2,,,,832,False,CCCC[N+]1(C)CCCC1.O=S(=O)([O-])C(F)(F)F,No changes
vRbvi,298.15,101.0,1195.2,Vercher et al. (2018),Liquid,0.6999,1-butyl-1-methylpyrrolidinium trifluoromethanesulfonate,,,CCCC[N+]1(C)CCCC1.O=S(=O)([O-])C(F)(F)F,1-butyl-1-methylpyrrolidinium trifluoromethanesulfonate,ABEBwg,CC(C)O,propan-2-ol,AALcwx,CCCC[N+]1(C)CCCC1,O=S(=O)([O-])C(F)(F)F,2,,,,833,False,CCCC[N+]1(C)CCCC1.O=S(=O)([O-])C(F)(F)F,No changes
vRbvi,298.15,101.0,1217.5,Vercher et al. (2018),Liquid,0.8015,1-butyl-1-methylpyrrolidinium trifluoromethanesulfonate,,,CCCC[N+]1(C)CCCC1.O=S(=O)([O-])C(F)(F)F,1-butyl-1-methylpyrrolidinium trifluoromethanesulfonate,ABEBwg,CC(C)O,propan-2-ol,AALcwx,CCCC[N+]1(C)CCCC1,O=S(=O)([O-])C(F)(F)F,2,,,,834,False,CCCC[N+]1(C)CCCC1.O=S(=O)([O-])C(F)(F)F,No changes
vRbvi,298.15,101.0,1226.9,Vercher et al. (2018),Liquid,0.8501,1-butyl-1-methylpyrrolidinium trifluoromethanesulfonate,,,CCCC[N+]1(C)CCCC1.O=S(=O)([O-])C(F)(F)F,1-butyl-1-methylpyrrolidinium trifluoromethanesulfonate,ABEBwg,CC(C)O,propan-2-ol,AALcwx,CCCC[N+]1(C)CCCC1,O=S(=O)([O-])C(F)(F)F,2,,,,835,False,CCCC[N+]1(C)CCCC1.O=S(=O)([O-])C(F)(F)F,No changes
vRbvi,298.15,101.0,1235.8,Vercher et al. (2018),Liquid,0.8993,1-butyl-1-methylpyrrolidinium trifluoromethanesulfonate,,,CCCC[N+]1(C)CCCC1.O=S(=O)([O-])C(F)(F)F,1-butyl-1-methylpyrrolidinium trifluoromethanesulfonate,ABEBwg,CC(C)O,propan-2-ol,AALcwx,CCCC[N+]1(C)CCCC1,O=S(=O)([O-])C(F)(F)F,2,,,,836,False,CCCC[N+]1(C)CCCC1.O=S(=O)([O-])C(F)(F)F,No changes
vRbvi,298.15,101.0,1244.0,Vercher et al. (2018),Liquid,0.9482,1-butyl-1-methylpyrrolidinium trifluoromethanesulfonate,,,CCCC[N+]1(C)CCCC1.O=S(=O)([O-])C(F)(F)F,1-butyl-1-methylpyrrolidinium trifluoromethanesulfonate,ABEBwg,CC(C)O,propan-2-ol,AALcwx,CCCC[N+]1(C)CCCC1,O=S(=O)([O-])C(F)(F)F,2,,,,837,False,CCCC[N+]1(C)CCCC1.O=S(=O)([O-])C(F)(F)F,No changes
vRbvi,298.15,101.0,1252.1,Vercher et al. (2018),Liquid,1.0,1-butyl-1-methylpyrrolidinium trifluoromethanesulfonate,,,CCCC[N+]1(C)CCCC1.O=S(=O)([O-])C(F)(F)F,1-butyl-1-methylpyrrolidinium trifluoromethanesulfonate,ABEBwg,CC(C)O,propan-2-ol,AALcwx,CCCC[N+]1(C)CCCC1,O=S(=O)([O-])C(F)(F)F,2,,,,838,False,CCCC[N+]1(C)CCCC1.O=S(=O)([O-])C(F)(F)F,No changes
vRbvi,308.15,101.0,772.4,Vercher et al. (2018),Liquid,0.0,1-butyl-1-methylpyrrolidinium trifluoromethanesulfonate,,,CCCC[N+]1(C)CCCC1.O=S(=O)([O-])C(F)(F)F,1-butyl-1-methylpyrrolidinium trifluoromethanesulfonate,ABEBwg,CC(C)O,propan-2-ol,AALcwx,CCCC[N+]1(C)CCCC1,O=S(=O)([O-])C(F)(F)F,2,,,,839,False,CCCC[N+]1(C)CCCC1.O=S(=O)([O-])C(F)(F)F,No changes
vRbvi,308.15,101.0,840.4,Vercher et al. (2018),Liquid,0.0506,1-butyl-1-methylpyrrolidinium trifluoromethanesulfonate,,,CCCC[N+]1(C)CCCC1.O=S(=O)([O-])C(F)(F)F,1-butyl-1-methylpyrrolidinium trifluoromethanesulfonate,ABEBwg,CC(C)O,propan-2-ol,AALcwx,CCCC[N+]1(C)CCCC1,O=S(=O)([O-])C(F)(F)F,2,,,,840,False,CCCC[N+]1(C)CCCC1.O=S(=O)([O-])C(F)(F)F,No changes
vRbvi,308.15,101.0,896.6,Vercher et al. (2018),Liquid,0.1019,1-butyl-1-methylpyrrolidinium trifluoromethanesulfonate,,,CCCC[N+]1(C)CCCC1.O=S(=O)([O-])C(F)(F)F,1-butyl-1-methylpyrrolidinium trifluoromethanesulfonate,ABEBwg,CC(C)O,propan-2-ol,AALcwx,CCCC[N+]1(C)CCCC1,O=S(=O)([O-])C(F)(F)F,2,,,,841,False,CCCC[N+]1(C)CCCC1.O=S(=O)([O-])C(F)(F)F,No changes
vRbvi,308.15,101.0,941.0,Vercher et al. (2018),Liquid,0.1505,1-butyl-1-methylpyrrolidinium trifluoromethanesulfonate,,,CCCC[N+]1(C)CCCC1.O=S(=O)([O-])C(F)(F)F,1-butyl-1-methylpyrrolidinium trifluoromethanesulfonate,ABEBwg,CC(C)O,propan-2-ol,AALcwx,CCCC[N+]1(C)CCCC1,O=S(=O)([O-])C(F)(F)F,2,,,,842,False,CCCC[N+]1(C)CCCC1.O=S(=O)([O-])C(F)(F)F,No changes
vRbvi,308.15,101.0,980.0,Vercher et al. (2018),Liquid,0.2002,1-butyl-1-methylpyrrolidinium trifluoromethanesulfonate,,,CCCC[N+]1(C)CCCC1.O=S(=O)([O-])C(F)(F)F,1-butyl-1-methylpyrrolidinium trifluoromethanesulfonate,ABEBwg,CC(C)O,propan-2-ol,AALcwx,CCCC[N+]1(C)CCCC1,O=S(=O)([O-])C(F)(F)F,2,,,,843,False,CCCC[N+]1(C)CCCC1.O=S(=O)([O-])C(F)(F)F,No changes
vRbvi,308.15,101.0,1043.0,Vercher et al. (2018),Liquid,0.3002,1-butyl-1-methylpyrrolidinium trifluoromethanesulfonate,,,CCCC[N+]1(C)CCCC1.O=S(=O)([O-])C(F)(F)F,1-butyl-1-methylpyrrolidinium trifluoromethanesulfonate,ABEBwg,CC(C)O,propan-2-ol,AALcwx,CCCC[N+]1(C)CCCC1,O=S(=O)([O-])C(F)(F)F,2,,,,844,False,CCCC[N+]1(C)CCCC1.O=S(=O)([O-])C(F)(F)F,No changes
vRbvi,308.15,101.0,1091.4,Vercher et al. (2018),Liquid,0.3997,1-butyl-1-methylpyrrolidinium trifluoromethanesulfonate,,,CCCC[N+]1(C)CCCC1.O=S(=O)([O-])C(F)(F)F,1-butyl-1-methylpyrrolidinium trifluoromethanesulfonate,ABEBwg,CC(C)O,propan-2-ol,AALcwx,CCCC[N+]1(C)CCCC1,O=S(=O)([O-])C(F)(F)F,2,,,,845,False,CCCC[N+]1(C)CCCC1.O=S(=O)([O-])C(F)(F)F,No changes
vRbvi,308.15,101.0,1130.1,Vercher et al. (2018),Liquid,0.4996,1-butyl-1-methylpyrrolidinium trifluoromethanesulfonate,,,CCCC[N+]1(C)CCCC1.O=S(=O)([O-])C(F)(F)F,1-butyl-1-methylpyrrolidinium trifluoromethanesulfonate,ABEBwg,CC(C)O,propan-2-ol,AALcwx,CCCC[N+]1(C)CCCC1,O=S(=O)([O-])C(F)(F)F,2,,,,846,False,CCCC[N+]1(C)CCCC1.O=S(=O)([O-])C(F)(F)F,No changes
vRbvi,308.15,101.0,1161.7,Vercher et al. (2018),Liquid,0.6001,1-butyl-1-methylpyrrolidinium trifluoromethanesulfonate,,,CCCC[N+]1(C)CCCC1.O=S(=O)([O-])C(F)(F)F,1-butyl-1-methylpyrrolidinium trifluoromethanesulfonate,ABEBwg,CC(C)O,propan-2-ol,AALcwx,CCCC[N+]1(C)CCCC1,O=S(=O)([O-])C(F)(F)F,2,,,,847,False,CCCC[N+]1(C)CCCC1.O=S(=O)([O-])C(F)(F)F,No changes
vRbvi,308.15,101.0,1187.8,Vercher et al. (2018),Liquid,0.6999,1-butyl-1-methylpyrrolidinium trifluoromethanesulfonate,,,CCCC[N+]1(C)CCCC1.O=S(=O)([O-])C(F)(F)F,1-butyl-1-methylpyrrolidinium trifluoromethanesulfonate,ABEBwg,CC(C)O,propan-2-ol,AALcwx,CCCC[N+]1(C)CCCC1,O=S(=O)([O-])C(F)(F)F,2,,,,848,False,CCCC[N+]1(C)CCCC1.O=S(=O)([O-])C(F)(F)F,No changes
vRbvi,308.15,101.0,1210.2,Vercher et al. (2018),Liquid,0.8015,1-butyl-1-methylpyrrolidinium trifluoromethanesulfonate,,,CCCC[N+]1(C)CCCC1.O=S(=O)([O-])C(F)(F)F,1-butyl-1-methylpyrrolidinium trifluoromethanesulfonate,ABEBwg,CC(C)O,propan-2-ol,AALcwx,CCCC[N+]1(C)CCCC1,O=S(=O)([O-])C(F)(F)F,2,,,,849,False,CCCC[N+]1(C)CCCC1.O=S(=O)([O-])C(F)(F)F,No changes
vRbvi,308.15,101.0,1219.6,Vercher et al. (2018),Liquid,0.8501,1-butyl-1-methylpyrrolidinium trifluoromethanesulfonate,,,CCCC[N+]1(C)CCCC1.O=S(=O)([O-])C(F)(F)F,1-butyl-1-methylpyrrolidinium trifluoromethanesulfonate,ABEBwg,CC(C)O,propan-2-ol,AALcwx,CCCC[N+]1(C)CCCC1,O=S(=O)([O-])C(F)(F)F,2,,,,850,False,CCCC[N+]1(C)CCCC1.O=S(=O)([O-])C(F)(F)F,No changes
vRbvi,308.15,101.0,1228.6,Vercher et al. (2018),Liquid,0.8993,1-butyl-1-methylpyrrolidinium trifluoromethanesulfonate,,,CCCC[N+]1(C)CCCC1.O=S(=O)([O-])C(F)(F)F,1-butyl-1-methylpyrrolidinium trifluoromethanesulfonate,ABEBwg,CC(C)O,propan-2-ol,AALcwx,CCCC[N+]1(C)CCCC1,O=S(=O)([O-])C(F)(F)F,2,,,,851,False,CCCC[N+]1(C)CCCC1.O=S(=O)([O-])C(F)(F)F,No changes
vRbvi,308.15,101.0,1236.8,Vercher et al. (2018),Liquid,0.9482,1-butyl-1-methylpyrrolidinium trifluoromethanesulfonate,,,CCCC[N+]1(C)CCCC1.O=S(=O)([O-])C(F)(F)F,1-butyl-1-methylpyrrolidinium trifluoromethanesulfonate,ABEBwg,CC(C)O,propan-2-ol,AALcwx,CCCC[N+]1(C)CCCC1,O=S(=O)([O-])C(F)(F)F,2,,,,852,False,CCCC[N+]1(C)CCCC1.O=S(=O)([O-])C(F)(F)F,No changes
vRbvi,308.15,101.0,1245.0,Vercher et al. (2018),Liquid,1.0,1-butyl-1-methylpyrrolidinium trifluoromethanesulfonate,,,CCCC[N+]1(C)CCCC1.O=S(=O)([O-])C(F)(F)F,1-butyl-1-methylpyrrolidinium trifluoromethanesulfonate,ABEBwg,CC(C)O,propan-2-ol,AALcwx,CCCC[N+]1(C)CCCC1,O=S(=O)([O-])C(F)(F)F,2,,,,853,False,CCCC[N+]1(C)CCCC1.O=S(=O)([O-])C(F)(F)F,No changes
vRbvi,318.15,101.0,763.4,Vercher et al. (2018),Liquid,0.0,1-butyl-1-methylpyrrolidinium trifluoromethanesulfonate,,,CCCC[N+]1(C)CCCC1.O=S(=O)([O-])C(F)(F)F,1-butyl-1-methylpyrrolidinium trifluoromethanesulfonate,ABEBwg,CC(C)O,propan-2-ol,AALcwx,CCCC[N+]1(C)CCCC1,O=S(=O)([O-])C(F)(F)F,2,,,,854,False,CCCC[N+]1(C)CCCC1.O=S(=O)([O-])C(F)(F)F,No changes
vRbvi,318.15,101.0,831.8,Vercher et al. (2018),Liquid,0.0506,1-butyl-1-methylpyrrolidinium trifluoromethanesulfonate,,,CCCC[N+]1(C)CCCC1.O=S(=O)([O-])C(F)(F)F,1-butyl-1-methylpyrrolidinium trifluoromethanesulfonate,ABEBwg,CC(C)O,propan-2-ol,AALcwx,CCCC[N+]1(C)CCCC1,O=S(=O)([O-])C(F)(F)F,2,,,,855,False,CCCC[N+]1(C)CCCC1.O=S(=O)([O-])C(F)(F)F,No changes
vRbvi,318.15,101.0,888.1,Vercher et al. (2018),Liquid,0.1019,1-butyl-1-methylpyrrolidinium trifluoromethanesulfonate,,,CCCC[N+]1(C)CCCC1.O=S(=O)([O-])C(F)(F)F,1-butyl-1-methylpyrrolidinium trifluoromethanesulfonate,ABEBwg,CC(C)O,propan-2-ol,AALcwx,CCCC[N+]1(C)CCCC1,O=S(=O)([O-])C(F)(F)F,2,,,,856,False,CCCC[N+]1(C)CCCC1.O=S(=O)([O-])C(F)(F)F,No changes
vRbvi,318.15,101.0,932.7,Vercher et al. (2018),Liquid,0.1505,1-butyl-1-methylpyrrolidinium trifluoromethanesulfonate,,,CCCC[N+]1(C)CCCC1.O=S(=O)([O-])C(F)(F)F,1-butyl-1-methylpyrrolidinium trifluoromethanesulfonate,ABEBwg,CC(C)O,propan-2-ol,AALcwx,CCCC[N+]1(C)CCCC1,O=S(=O)([O-])C(F)(F)F,2,,,,857,False,CCCC[N+]1(C)CCCC1.O=S(=O)([O-])C(F)(F)F,No changes
vRbvi,318.15,101.0,971.9,Vercher et al. (2018),Liquid,0.2002,1-butyl-1-methylpyrrolidinium trifluoromethanesulfonate,,,CCCC[N+]1(C)CCCC1.O=S(=O)([O-])C(F)(F)F,1-butyl-1-methylpyrrolidinium trifluoromethanesulfonate,ABEBwg,CC(C)O,propan-2-ol,AALcwx,CCCC[N+]1(C)CCCC1,O=S(=O)([O-])C(F)(F)F,2,,,,858,False,CCCC[N+]1(C)CCCC1.O=S(=O)([O-])C(F)(F)F,No changes
vRbvi,318.15,101.0,1035.1,Vercher et al. (2018),Liquid,0.3002,1-butyl-1-methylpyrrolidinium trifluoromethanesulfonate,,,CCCC[N+]1(C)CCCC1.O=S(=O)([O-])C(F)(F)F,1-butyl-1-methylpyrrolidinium trifluoromethanesulfonate,ABEBwg,CC(C)O,propan-2-ol,AALcwx,CCCC[N+]1(C)CCCC1,O=S(=O)([O-])C(F)(F)F,2,,,,859,False,CCCC[N+]1(C)CCCC1.O=S(=O)([O-])C(F)(F)F,No changes
vRbvi,318.15,101.0,1083.7,Vercher et al. (2018),Liquid,0.3997,1-butyl-1-methylpyrrolidinium trifluoromethanesulfonate,,,CCCC[N+]1(C)CCCC1.O=S(=O)([O-])C(F)(F)F,1-butyl-1-methylpyrrolidinium trifluoromethanesulfonate,ABEBwg,CC(C)O,propan-2-ol,AALcwx,CCCC[N+]1(C)CCCC1,O=S(=O)([O-])C(F)(F)F,2,,,,860,False,CCCC[N+]1(C)CCCC1.O=S(=O)([O-])C(F)(F)F,No changes
vRbvi,318.15,101.0,1122.5,Vercher et al. (2018),Liquid,0.4996,1-butyl-1-methylpyrrolidinium trifluoromethanesulfonate,,,CCCC[N+]1(C)CCCC1.O=S(=O)([O-])C(F)(F)F,1-butyl-1-methylpyrrolidinium trifluoromethanesulfonate,ABEBwg,CC(C)O,propan-2-ol,AALcwx,CCCC[N+]1(C)CCCC1,O=S(=O)([O-])C(F)(F)F,2,,,,861,False,CCCC[N+]1(C)CCCC1.O=S(=O)([O-])C(F)(F)F,No changes
vRbvi,318.15,101.0,1154.3,Vercher et al. (2018),Liquid,0.6001,1-butyl-1-methylpyrrolidinium trifluoromethanesulfonate,,,CCCC[N+]1(C)CCCC1.O=S(=O)([O-])C(F)(F)F,1-butyl-1-methylpyrrolidinium trifluoromethanesulfonate,ABEBwg,CC(C)O,propan-2-ol,AALcwx,CCCC[N+]1(C)CCCC1,O=S(=O)([O-])C(F)(F)F,2,,,,862,False,CCCC[N+]1(C)CCCC1.O=S(=O)([O-])C(F)(F)F,No changes
vRbvi,318.15,101.0,1180.4,Vercher et al. (2018),Liquid,0.6999,1-butyl-1-methylpyrrolidinium trifluoromethanesulfonate,,,CCCC[N+]1(C)CCCC1.O=S(=O)([O-])C(F)(F)F,1-butyl-1-methylpyrrolidinium trifluoromethanesulfonate,ABEBwg,CC(C)O,propan-2-ol,AALcwx,CCCC[N+]1(C)CCCC1,O=S(=O)([O-])C(F)(F)F,2,,,,863,False,CCCC[N+]1(C)CCCC1.O=S(=O)([O-])C(F)(F)F,No changes
vRbvi,318.15,101.0,1202.9,Vercher et al. (2018),Liquid,0.8015,1-butyl-1-methylpyrrolidinium trifluoromethanesulfonate,,,CCCC[N+]1(C)CCCC1.O=S(=O)([O-])C(F)(F)F,1-butyl-1-methylpyrrolidinium trifluoromethanesulfonate,ABEBwg,CC(C)O,propan-2-ol,AALcwx,CCCC[N+]1(C)CCCC1,O=S(=O)([O-])C(F)(F)F,2,,,,864,False,CCCC[N+]1(C)CCCC1.O=S(=O)([O-])C(F)(F)F,No changes
vRbvi,318.15,101.0,1212.4,Vercher et al. (2018),Liquid,0.8501,1-butyl-1-methylpyrrolidinium trifluoromethanesulfonate,,,CCCC[N+]1(C)CCCC1.O=S(=O)([O-])C(F)(F)F,1-butyl-1-methylpyrrolidinium trifluoromethanesulfonate,ABEBwg,CC(C)O,propan-2-ol,AALcwx,CCCC[N+]1(C)CCCC1,O=S(=O)([O-])C(F)(F)F,2,,,,865,False,CCCC[N+]1(C)CCCC1.O=S(=O)([O-])C(F)(F)F,No changes
vRbvi,318.15,101.0,1221.3,Vercher et al. (2018),Liquid,0.8993,1-butyl-1-methylpyrrolidinium trifluoromethanesulfonate,,,CCCC[N+]1(C)CCCC1.O=S(=O)([O-])C(F)(F)F,1-butyl-1-methylpyrrolidinium trifluoromethanesulfonate,ABEBwg,CC(C)O,propan-2-ol,AALcwx,CCCC[N+]1(C)CCCC1,O=S(=O)([O-])C(F)(F)F,2,,,,866,False,CCCC[N+]1(C)CCCC1.O=S(=O)([O-])C(F)(F)F,No changes
vRbvi,318.15,101.0,1229.6,Vercher et al. (2018),Liquid,0.9482,1-butyl-1-methylpyrrolidinium trifluoromethanesulfonate,,,CCCC[N+]1(C)CCCC1.O=S(=O)([O-])C(F)(F)F,1-butyl-1-methylpyrrolidinium trifluoromethanesulfonate,ABEBwg,CC(C)O,propan-2-ol,AALcwx,CCCC[N+]1(C)CCCC1,O=S(=O)([O-])C(F)(F)F,2,,,,867,False,CCCC[N+]1(C)CCCC1.O=S(=O)([O-])C(F)(F)F,No changes
vRbvi,318.15,101.0,1237.8,Vercher et al. (2018),Liquid,1.0,1-butyl-1-methylpyrrolidinium trifluoromethanesulfonate,,,CCCC[N+]1(C)CCCC1.O=S(=O)([O-])C(F)(F)F,1-butyl-1-methylpyrrolidinium trifluoromethanesulfonate,ABEBwg,CC(C)O,propan-2-ol,AALcwx,CCCC[N+]1(C)CCCC1,O=S(=O)([O-])C(F)(F)F,2,,,,868,False,CCCC[N+]1(C)CCCC1.O=S(=O)([O-])C(F)(F)F,No changes
vRbvi,328.15,101.0,754.1,Vercher et al. (2018),Liquid,0.0,1-butyl-1-methylpyrrolidinium trifluoromethanesulfonate,,,CCCC[N+]1(C)CCCC1.O=S(=O)([O-])C(F)(F)F,1-butyl-1-methylpyrrolidinium trifluoromethanesulfonate,ABEBwg,CC(C)O,propan-2-ol,AALcwx,CCCC[N+]1(C)CCCC1,O=S(=O)([O-])C(F)(F)F,2,,,,869,False,CCCC[N+]1(C)CCCC1.O=S(=O)([O-])C(F)(F)F,No changes
vRbvi,328.15,101.0,822.9,Vercher et al. (2018),Liquid,0.0506,1-butyl-1-methylpyrrolidinium trifluoromethanesulfonate,,,CCCC[N+]1(C)CCCC1.O=S(=O)([O-])C(F)(F)F,1-butyl-1-methylpyrrolidinium trifluoromethanesulfonate,ABEBwg,CC(C)O,propan-2-ol,AALcwx,CCCC[N+]1(C)CCCC1,O=S(=O)([O-])C(F)(F)F,2,,,,870,False,CCCC[N+]1(C)CCCC1.O=S(=O)([O-])C(F)(F)F,No changes
vRbvi,328.15,101.0,879.5,Vercher et al. (2018),Liquid,0.1019,1-butyl-1-methylpyrrolidinium trifluoromethanesulfonate,,,CCCC[N+]1(C)CCCC1.O=S(=O)([O-])C(F)(F)F,1-butyl-1-methylpyrrolidinium trifluoromethanesulfonate,ABEBwg,CC(C)O,propan-2-ol,AALcwx,CCCC[N+]1(C)CCCC1,O=S(=O)([O-])C(F)(F)F,2,,,,871,False,CCCC[N+]1(C)CCCC1.O=S(=O)([O-])C(F)(F)F,No changes
vRbvi,328.15,101.0,924.4,Vercher et al. (2018),Liquid,0.1505,1-butyl-1-methylpyrrolidinium trifluoromethanesulfonate,,,CCCC[N+]1(C)CCCC1.O=S(=O)([O-])C(F)(F)F,1-butyl-1-methylpyrrolidinium trifluoromethanesulfonate,ABEBwg,CC(C)O,propan-2-ol,AALcwx,CCCC[N+]1(C)CCCC1,O=S(=O)([O-])C(F)(F)F,2,,,,872,False,CCCC[N+]1(C)CCCC1.O=S(=O)([O-])C(F)(F)F,No changes
vRbvi,328.15,101.0,963.7,Vercher et al. (2018),Liquid,0.2002,1-butyl-1-methylpyrrolidinium trifluoromethanesulfonate,,,CCCC[N+]1(C)CCCC1.O=S(=O)([O-])C(F)(F)F,1-butyl-1-methylpyrrolidinium trifluoromethanesulfonate,ABEBwg,CC(C)O,propan-2-ol,AALcwx,CCCC[N+]1(C)CCCC1,O=S(=O)([O-])C(F)(F)F,2,,,,873,False,CCCC[N+]1(C)CCCC1.O=S(=O)([O-])C(F)(F)F,No changes
vRbvi,328.15,101.0,1027.2,Vercher et al. (2018),Liquid,0.3002,1-butyl-1-methylpyrrolidinium trifluoromethanesulfonate,,,CCCC[N+]1(C)CCCC1.O=S(=O)([O-])C(F)(F)F,1-butyl-1-methylpyrrolidinium trifluoromethanesulfonate,ABEBwg,CC(C)O,propan-2-ol,AALcwx,CCCC[N+]1(C)CCCC1,O=S(=O)([O-])C(F)(F)F,2,,,,874,False,CCCC[N+]1(C)CCCC1.O=S(=O)([O-])C(F)(F)F,No changes
vRbvi,328.15,101.0,1076.0,Vercher et al. (2018),Liquid,0.3997,1-butyl-1-methylpyrrolidinium trifluoromethanesulfonate,,,CCCC[N+]1(C)CCCC1.O=S(=O)([O-])C(F)(F)F,1-butyl-1-methylpyrrolidinium trifluoromethanesulfonate,ABEBwg,CC(C)O,propan-2-ol,AALcwx,CCCC[N+]1(C)CCCC1,O=S(=O)([O-])C(F)(F)F,2,,,,875,False,CCCC[N+]1(C)CCCC1.O=S(=O)([O-])C(F)(F)F,No changes
vRbvi,328.15,101.0,1115.0,Vercher et al. (2018),Liquid,0.4996,1-butyl-1-methylpyrrolidinium trifluoromethanesulfonate,,,CCCC[N+]1(C)CCCC1.O=S(=O)([O-])C(F)(F)F,1-butyl-1-methylpyrrolidinium trifluoromethanesulfonate,ABEBwg,CC(C)O,propan-2-ol,AALcwx,CCCC[N+]1(C)CCCC1,O=S(=O)([O-])C(F)(F)F,2,,,,876,False,CCCC[N+]1(C)CCCC1.O=S(=O)([O-])C(F)(F)F,No changes